 Gaussian 16, Revision C.02,
 Gaussian 16:  ES64L-G16RevC.02  7-Dec-2021

 ----------------------------------------------------------------------
 #p pop=nbo pbe1pbe/def2svpp empiricaldispersion=gd3bj integral=grid=ul
 trafinegrid scf=(xqc,maxconventionalcycles=90) nosymm
 ----------------------------------------------------------------------

 ----
 Cisa
 ----
 Symbolic Z-matrix:
 Charge =  0 Multiplicity = 1

                          Input orientation:
 ---------------------------------------------------------------------
 Center     Atomic      Atomic             Coordinates (Angstroms)
 Number     Number       Type             X           Y           Z
 ---------------------------------------------------------------------
      1         15           0        0.196310    0.893940   -0.780020
      2          6           0        1.103030    0.378170   -2.271720
      3          6           0        0.408100   -0.307210   -3.274780
      4          6           0        1.084240   -0.780130   -4.399730
      5          6           0        2.453790   -0.554550   -4.533680
      6          6           0        3.148490    0.142390   -3.542150
      7          6           0        2.478550    0.602340   -2.411770
      8          6           0        0.823890    2.551330   -0.351440
      9          6           0        0.619190    3.047300    0.945340
     10          6           0        0.934070    4.368520    1.251610
     11          6           0        1.445520    5.215490    0.266670
     12          6           0        1.635540    4.734630   -1.027400
     13          6           0        1.322890    3.411090   -1.338680
     14         15           0       -2.545250   -0.872660    0.058600
     15          6           0       -1.093470   -2.048650    0.184560
     16          6           0       -1.385770   -3.462120    0.678930
     17          6           0        0.706020   -0.175710    0.583400
     18          6           0        0.006540   -1.380310    0.960860
     19          6           0        0.545670   -1.807710    2.212020
     20          6           0        1.570010   -0.898860    2.601520
     21          6           0        1.681430    0.100950    1.599020
     22          1           0       -0.671840   -0.462720   -3.165410
     23          1           0        3.027730    1.138040   -1.632120
     24          1           0        0.204700    2.398370    1.721510
     25          1           0        1.470410    3.051990   -2.360720
     26          1           0       -0.766960   -2.118910   -0.869090
     27          1           0       -0.441970   -4.030850    0.720270
     28          1           0       -2.064440   -3.995590   -0.002200
     29          1           0       -1.831650   -3.477210    1.683460
     30          1           0        2.381850    0.935270    1.594860
     31         26           0        2.006190   -1.739600    0.790040
     32          6           0        3.061170   -3.480440    0.993100
     33          6           0        3.947870   -2.369010    0.915040
     34          6           0        3.722250   -1.712130   -0.327740
     35          6           0        2.696980   -2.419980   -1.021430
     36          6           0        2.292000   -3.512820   -0.206210
     37          1           0        2.971350   -4.170510    1.832420
     38          1           0        4.239260   -0.820480   -0.678770
     39          1           0        2.287480   -2.163620   -1.998240
     40          1           0        1.522760   -4.244040   -0.455240
     41          1           0        2.984770   -0.920090   -5.417260
     42          1           0        1.693240    6.252740    0.509100
     43          1           0        2.192400   -0.982460    3.492320
     44          1           0        0.260410   -2.706700    2.756750
     45          1           0        4.653410   -2.057910    1.685750
     46          1           0        0.776860    4.740520    2.268060
     47          1           0        2.031420    5.393010   -1.805840
     48          1           0        4.222150    0.321430   -3.649600
     49          1           0        0.537990   -1.320230   -5.178160
     50          6           0       -3.089860   -0.341640    1.753260
     51          6           0       -3.050900   -1.388120    2.871430
     52          6           0       -2.342370    0.926510    2.191440
     53          1           0       -4.149300   -0.059970    1.579570
     54          6           0       -3.635870   -0.821780    4.164610
     55          1           0       -1.999790   -1.673850    3.050950
     56          1           0       -3.592340   -2.303290    2.584990
     57          6           0       -2.915380    1.490690    3.487630
     58          1           0       -1.275670    0.675900    2.339060
     59          1           0       -2.383500    1.683660    1.383990
     60          6           0       -2.911620    0.447510    4.599990
     61          1           0       -3.585220   -1.587030    4.958530
     62          1           0       -4.709970   -0.601030    4.011920
     63          1           0       -2.339980    2.383130    3.790960
     64          1           0       -3.952430    1.833640    3.306610
     65          1           0       -3.372690    0.858560    5.514540
     66          1           0       -1.864920    0.197580    4.859990
     67          6           0       -3.964070   -1.786790   -0.706640
     68          6           0       -3.529370   -2.412200   -2.038330
     69          6           0       -4.770200   -2.769000    0.148950
     70          1           0       -4.655390   -0.954680   -0.947140
     71          6           0       -4.728480   -2.956840   -2.809910
     72          1           0       -2.822570   -3.240030   -1.846320
     73          1           0       -2.978680   -1.668260   -2.644480
     74          6           0       -5.960190   -3.312240   -0.642870
     75          1           0       -4.135430   -3.608920    0.478290
     76          1           0       -5.136260   -2.268550    1.060800
     77          6           0       -5.528100   -3.941790   -1.963010
     78          1           0       -4.386900   -3.435130   -3.744220
     79          1           0       -5.382990   -2.114820   -3.109420
     80          1           0       -6.510210   -4.044360   -0.026840
     81          1           0       -6.666080   -2.484090   -0.847150
     82          1           0       -6.409370   -4.299640   -2.522360
     83          1           0       -4.905720   -4.834180   -1.757640
 ---------------------------------------------------------------------

 SCF Done:  E(RPBE1PBE) =  -3341.29900576     A.U. after   18 cycles

 Alpha  occ. eigenvalues -- -256.34791 -77.18625 -77.16443 -30.12259 -25.97107
 Alpha  occ. eigenvalues --  -25.95218 -25.95202 -10.25206 -10.24525 -10.24461
 Alpha  occ. eigenvalues --  -10.24413 -10.24381 -10.24345 -10.24262 -10.24223
 Alpha  occ. eigenvalues --  -10.24169 -10.24149 -10.24123 -10.24080 -10.24025
 Alpha  occ. eigenvalues --  -10.23899 -10.23840 -10.23757 -10.23580 -10.23433
 Alpha  occ. eigenvalues --  -10.23283 -10.23124 -10.23099 -10.23083 -10.23037
 Alpha  occ. eigenvalues --  -10.22975 -10.22818 -10.22780 -10.22348 -10.22253
 Alpha  occ. eigenvalues --  -10.22241 -10.22156 -10.21947 -10.21866 -10.21789
 Alpha  occ. eigenvalues --  -10.21701 -10.21625 -10.21486  -6.59672  -6.57548
 Alpha  occ. eigenvalues --   -4.73728  -4.73715  -4.73182  -4.71621  -4.71577
 Alpha  occ. eigenvalues --   -4.71012  -3.45442  -2.24430  -2.19676  -2.19645
 Alpha  occ. eigenvalues --   -0.91943  -0.90035  -0.88126  -0.86843  -0.85543
 Alpha  occ. eigenvalues --   -0.84684  -0.80738  -0.78521  -0.76777  -0.76552
 Alpha  occ. eigenvalues --   -0.75900  -0.75830  -0.75444  -0.75105  -0.74945
 Alpha  occ. eigenvalues --   -0.73423  -0.72648  -0.72498  -0.71609  -0.66308
 Alpha  occ. eigenvalues --   -0.65574  -0.62821  -0.62443  -0.62144  -0.61564
 Alpha  occ. eigenvalues --   -0.61344  -0.60915  -0.60746  -0.58551  -0.56868
 Alpha  occ. eigenvalues --   -0.56514  -0.55961  -0.55565  -0.55165  -0.54925
 Alpha  occ. eigenvalues --   -0.54474  -0.53660  -0.52742  -0.51530  -0.49625
 Alpha  occ. eigenvalues --   -0.49208  -0.48161  -0.47411  -0.46608  -0.46200
 Alpha  occ. eigenvalues --   -0.45888  -0.45701  -0.45445  -0.45307  -0.44607
 Alpha  occ. eigenvalues --   -0.44544  -0.44154  -0.43650  -0.43484  -0.42980
 Alpha  occ. eigenvalues --   -0.42804  -0.42252  -0.42114  -0.41962  -0.41600
 Alpha  occ. eigenvalues --   -0.41112  -0.40708  -0.40158  -0.39884  -0.39360
 Alpha  occ. eigenvalues --   -0.39221  -0.39091  -0.39030  -0.38649  -0.38153
 Alpha  occ. eigenvalues --   -0.38004  -0.37840  -0.37365  -0.37149  -0.36736
 Alpha  occ. eigenvalues --   -0.36380  -0.36178  -0.35705  -0.35424  -0.34955
 Alpha  occ. eigenvalues --   -0.34701  -0.34434  -0.34012  -0.33486  -0.32490
 Alpha  occ. eigenvalues --   -0.32070  -0.31512  -0.30847  -0.30587  -0.28798
 Alpha  occ. eigenvalues --   -0.28150  -0.27944  -0.27774  -0.27631  -0.27280
 Alpha  occ. eigenvalues --   -0.26237  -0.25738  -0.25267  -0.24774  -0.22469
 Alpha  occ. eigenvalues --   -0.21550  -0.21255  -0.17117
 Alpha virt. eigenvalues --   -0.02460  -0.01144  -0.00591  -0.00164   0.00208
 Alpha virt. eigenvalues --    0.00561   0.03471   0.04401   0.05399   0.06191
 Alpha virt. eigenvalues --    0.06343   0.06855   0.07144   0.07274   0.07428

 Mulliken charges:
               1
     1  P    0.420472
     2  C   -0.138697
     3  C   -0.121396
     4  C   -0.098520
     5  C   -0.092482
     6  C   -0.089526
     7  C   -0.126154
     8  C   -0.125173
     9  C   -0.160823
    10  C   -0.085516
    11  C   -0.101409
    12  C   -0.082573
    13  C   -0.154228
    14  P    0.332098
    15  C   -0.332446
    16  C   -0.320540
    17  C   -0.159185
    18  C   -0.045525
    19  C   -0.089722
    20  C   -0.046556
    21  C   -0.099746
    22  H    0.124640
    23  H    0.121530
    24  H    0.125826
    25  H    0.113271
    26  H    0.153979
    27  H    0.139916
    28  H    0.148356
    29  H    0.135687
    30  H    0.122260
    31  Fe  -0.219746
    32  C   -0.084409
    33  C   -0.068193
    34  C   -0.088290
    35  C   -0.104843
    36  C   -0.090895
    37  H    0.113295
    38  H    0.107170
    39  H    0.141157
    40  H    0.111792
    41  H    0.101689
    42  H    0.092743
    43  H    0.108398
    44  H    0.104599
    45  H    0.115444
    46  H    0.090328
    47  H    0.092586
    48  H    0.097991
    49  H    0.098628
    50  C   -0.387315
    51  C   -0.225731
    52  C   -0.239307
    53  H    0.125378
    54  C   -0.186639
    55  H    0.138990
    56  H    0.136546
    57  C   -0.188224
    58  H    0.174351
    59  H    0.141756
    60  C   -0.214962
    61  H    0.108711
    62  H    0.098823
    63  H    0.112195
    64  H    0.100782
    65  H    0.112630
    66  H    0.104084
    67  C   -0.371258
    68  C   -0.231895
    69  C   -0.199959
    70  H    0.131199
    71  C   -0.186654
    72  H    0.122012
    73  H    0.146910
    74  C   -0.190791
    75  H    0.115055
    76  H    0.132790
    77  C   -0.217088
    78  H    0.112891
    79  H    0.105702
    80  H    0.112433
    81  H    0.101389
    82  H    0.116099
    83  H    0.101837
 Sum of Mulliken charges =  -0.00000

 Dipole moment (field-independent basis, Debye):
    X=              0.4892    Y=             -1.6765    Z=              0.3296  Tot=              1.7772
 Quadrupole moment (field-independent basis, Debye-Ang):
   XX=           -252.2579   YY=           -254.2766   ZZ=           -245.5980
   XY=              8.7857   XZ=             -0.3780   YZ=              1.5976

 Summary of Natural Population Analysis:

                                       Natural Population
                Natural  -----------------------------------------------
    Atom  No    Charge         Core      Valence    Rydberg      Total
 -----------------------------------------------------------------------
      P    1    0.89133      9.99789     4.06498    0.04580    14.10867
      C    2   -0.34778      1.99885     4.32195    0.02698     6.34778
      C    3   -0.20295      1.99887     4.18605    0.01804     6.20295
      C    4   -0.22426      1.99893     4.20954    0.01580     6.22426
      C    5   -0.21458      1.99894     4.20001    0.01562     6.21458
      C    6   -0.22237      1.99892     4.20729    0.01616     6.22237
      C    7   -0.21228      1.99890     4.19284    0.02054     6.21228
      C    8   -0.34481      1.99891     4.32161    0.02429     6.34481
      C    9   -0.22360      1.99890     4.20644    0.01826     6.22360
      C   10   -0.21331      1.99894     4.19850    0.01587     6.21331
      C   11   -0.23363      1.99895     4.21877    0.01591     6.23363
      C   12   -0.21234      1.99894     4.19750    0.01590     6.21234
      C   13   -0.22649      1.99890     4.20992    0.01766     6.22649
      P   14    0.79783      9.99834     4.16071    0.04313    14.20217
      C   15   -0.52961      1.99900     4.50781    0.02280     6.52961
      C   16   -0.62427      1.99926     4.61227    0.01274     6.62427
      C   17   -0.38945      1.99857     4.36008    0.03080     6.38945
      C   18   -0.05999      1.99861     4.02996    0.03141     6.05999
      C   19   -0.23902      1.99864     4.21847    0.02191     6.23902
      C   20   -0.22811      1.99866     4.20583    0.02362     6.22811
      C   21   -0.22663      1.99865     4.20213    0.02585     6.22663
      H   22    0.23633      0.00000     0.76165    0.00202     0.76367
      H   23    0.23758      0.00000     0.76040    0.00203     0.76242
      H   24    0.22871      0.00000     0.76847    0.00282     0.77129
      H   25    0.23152      0.00000     0.76636    0.00212     0.76848
      H   26    0.26736      0.00000     0.72899    0.00365     0.73264
      H   27    0.21446      0.00000     0.78267    0.00287     0.78554
      H   28    0.21813      0.00000     0.78050    0.00136     0.78187
      H   29    0.21849      0.00000     0.77992    0.00159     0.78151
      H   30    0.25981      0.00000     0.73888    0.00131     0.74019
     Fe   31    0.02063     17.99294     7.96845    0.01799    25.97937
      C   32   -0.23987      1.99866     4.21832    0.02289     6.23987
      C   33   -0.23721      1.99866     4.21573    0.02282     6.23721
      C   34   -0.24329      1.99868     4.22192    0.02269     6.24329
      C   35   -0.23744      1.99870     4.21523    0.02350     6.23744
      C   36   -0.24531      1.99868     4.22322    0.02340     6.24531
      H   37    0.24505      0.00000     0.75378    0.00117     0.75495
      H   38    0.24436      0.00000     0.75417    0.00147     0.75564
      H   39    0.25050      0.00000     0.74609    0.00342     0.74950
      H   40    0.24234      0.00000     0.75620    0.00146     0.75766
      H   41    0.22602      0.00000     0.77231    0.00167     0.77398
      H   42    0.22150      0.00000     0.77682    0.00168     0.77850
      H   43    0.24819      0.00000     0.75063    0.00118     0.75181
      H   44    0.25324      0.00000     0.74559    0.00117     0.74676
      H   45    0.24584      0.00000     0.75302    0.00114     0.75416
      H   46    0.22261      0.00000     0.77571    0.00168     0.77739
      H   47    0.22254      0.00000     0.77575    0.00172     0.77746
      H   48    0.22621      0.00000     0.77204    0.00175     0.77379
      H   49    0.22678      0.00000     0.77155    0.00167     0.77322
      C   50   -0.53972      1.99903     4.51990    0.02078     6.53972
      C   51   -0.43949      1.99909     4.42430    0.01610     6.43949
      C   52   -0.43838      1.99911     4.42286    0.01641     6.43838
      H   53    0.24549      0.00000     0.75033    0.00418     0.75451
      C   54   -0.42814      1.99914     4.41362    0.01538     6.42814
      H   55    0.21727      0.00000     0.77881    0.00392     0.78273
      H   56    0.22566      0.00000     0.77175    0.00260     0.77434
      C   57   -0.42923      1.99913     4.41486    0.01525     6.42923
      H   58    0.21704      0.00000     0.77746    0.00550     0.78296
      H   59    0.24307      0.00000     0.75432    0.00261     0.75693
      C   60   -0.43300      1.99913     4.41981    0.01405     6.43300
      H   61    0.22208      0.00000     0.77546    0.00246     0.77792
      H   62    0.20951      0.00000     0.78747    0.00302     0.79049
      H   63    0.22424      0.00000     0.77349    0.00228     0.77576
      H   64    0.21077      0.00000     0.78620    0.00303     0.78923
      H   65    0.22293      0.00000     0.77476    0.00231     0.77707
      H   66    0.21212      0.00000     0.78499    0.00289     0.78788
      C   67   -0.54171      1.99903     4.52249    0.02019     6.54171
      C   68   -0.43533      1.99912     4.42077    0.01544     6.43533
      C   69   -0.43637      1.99911     4.42111    0.01615     6.43637
      H   70    0.25149      0.00000     0.74448    0.00404     0.74851
      C   71   -0.42748      1.99914     4.41311    0.01523     6.42748
      H   72    0.21114      0.00000     0.78574    0.00312     0.78886
      H   73    0.23238      0.00000     0.76461    0.00301     0.76762
      C   74   -0.42998      1.99914     4.41554    0.01530     6.42998
      H   75    0.21522      0.00000     0.78176    0.00302     0.78478
      H   76    0.22475      0.00000     0.77234    0.00291     0.77525
      C   77   -0.43360      1.99914     4.42035    0.01412     6.43360
      H   78    0.22445      0.00000     0.77326    0.00228     0.77555
      H   79    0.21336      0.00000     0.78364    0.00299     0.78664
      H   80    0.22424      0.00000     0.77336    0.00240     0.77576
      H   81    0.21121      0.00000     0.78575    0.00304     0.78879
      H   82    0.22528      0.00000     0.77245    0.00228     0.77472
      H   83    0.21000      0.00000     0.78699    0.00301     0.79000
 =======================================================================
   * Total *   -0.00000    109.95021   205.13516    0.91463   316.00000

 Normal termination of Gaussian 16 at Fri Sep 29 19:33:46 2023.
