 Gaussian 16, Revision C.02,
 Gaussian 16:  ES64L-G16RevC.02  7-Dec-2021

 ----------------------------------------------------------------------
 #p pop=nbo pbe1pbe/def2svpp empiricaldispersion=gd3bj integral=grid=ul
 trafinegrid scf=(xqc,maxconventionalcycles=90) nosymm
 ----------------------------------------------------------------------

 ----
 Cisa
 ----
 Symbolic Z-matrix:
 Charge =  0 Multiplicity = 1

                          Input orientation:
 ---------------------------------------------------------------------
 Center     Atomic      Atomic             Coordinates (Angstroms)
 Number     Number       Type             X           Y           Z
 ---------------------------------------------------------------------
      1         15           0        0.145490    0.809080   -0.585080
      2         15           0       -2.660480   -0.759270   -0.061480
      3          6           0       -1.402900   -2.152350    0.070160
      4          6           0       -1.885120   -3.543020    0.467070
      5          6           0        0.597480   -0.509180    0.548010
      6          6           0       -0.176520   -1.699960    0.811310
      7          6           0        0.500950   -2.415030    1.842730
      8          6           0        1.675430   -1.696410    2.207170
      9          6           0        1.744660   -0.524050    1.411580
     10          1           0       -1.116810   -2.210720   -0.992780
     11          1           0       -1.157520   -4.290890    0.108870
     12          1           0       -2.864050   -3.777150    0.020540
     13          1           0       -1.978090   -3.669510    1.552250
     14          1           0        2.531960    0.229200    1.433670
     15          6           0       -3.479840    1.787660    3.715430
     16          6           0       -3.481660    0.401420    3.850740
     17          6           0       -3.229320   -0.451480    2.769800
     18          6           0       -2.950940    0.130520    1.512960
     19          6           0       -2.952050    1.529980    1.389540
     20          6           0       -3.219500    2.358780    2.473900
     21          1           0       -2.724990    1.972600    0.413080
     22          6           0       -6.735830   -2.565890   -1.294100
     23          6           0       -6.632010   -1.784060   -0.146850
     24          6           0       -5.391990   -1.272210    0.225140
     25          6           0       -4.243620   -1.537110   -0.534510
     26          6           0       -4.344090   -2.314080   -1.713720
     27          6           0       -5.602600   -2.817160   -2.063860
     28          1           0       -5.316420   -0.649890    1.120930
     29         26           0        1.714030   -2.153800    0.208430
     30          6           0        2.674200   -3.921050   -0.180130
     31          6           0        3.587070   -2.831160   -0.263670
     32          6           0        3.114550   -1.932860   -1.262100
     33          6           0        1.908130   -2.472070   -1.802130
     34          6           0        1.638790   -3.700110   -1.134290
     35          1           0        2.743430   -4.763920    0.507790
     36          1           0        3.583220   -0.990120   -1.546410
     37          1           0        1.294170   -2.009320   -2.575270
     38          1           0        0.782660   -4.352050   -1.310940
     39          1           0       -3.689600    2.419140    4.583680
     40          1           0       -7.703030   -2.975210   -1.599060
     41          1           0        2.413790   -2.015220    2.942710
     42          1           0        0.204900   -3.381800    2.247310
     43          1           0        4.474050   -2.691390    0.354640
     44          6           0        1.590450    1.170070   -1.600690
     45          6           0        2.693580    1.956670   -1.397880
     46          8           0        1.668130    0.581890   -2.823270
     47          6           0        3.499660    1.825820   -2.568420
     48          1           0        2.897550    2.559610   -0.513920
     49          6           0        2.822640    0.976290   -3.394770
     50          1           0        4.455400    2.306730   -2.772410
     51          1           0        3.025500    0.577390   -4.387030
     52          6           0        0.151780    2.229540    0.531260
     53          6           0        0.258510    2.337980    1.892400
     54          8           0       -0.086020    3.454400   -0.007310
     55          6           0        0.084980    3.721750    2.197410
     56          1           0        0.421260    1.520270    2.591310
     57          6           0       -0.118240    4.346890    1.002260
     58          1           0        0.112010    4.189200    3.180620
     59          1           0       -0.280380    5.384510    0.716010
     60          6           0       -3.261440   -1.930910    3.002540
     61          1           0       -3.816410   -2.169190    3.923570
     62          1           0       -3.739500   -2.471210    2.170210
     63          1           0       -2.236960   -2.324410    3.125050
     64          6           0       -3.171370   -2.618440   -2.606280
     65          1           0       -2.601440   -3.494410   -2.248320
     66          1           0       -3.512910   -2.854510   -3.627070
     67          1           0       -2.467440   -1.766060   -2.674200
     68          1           0       -5.693180   -3.419570   -2.973310
     69          1           0       -7.514910   -1.567670    0.460780
     70          1           0       -3.697410   -0.042390    4.827470
     71          1           0       -3.213380    3.444070    2.345840
 ---------------------------------------------------------------------

 SCF Done:  E(RPBE1PBE) =  -3408.14794422     A.U. after   19 cycles

 Alpha  occ. eigenvalues -- -256.35240 -77.20094 -77.18414 -30.12738 -25.97571
 Alpha  occ. eigenvalues --  -25.95714 -25.95669 -19.28392 -19.27796 -10.28417
 Alpha  occ. eigenvalues --  -10.28041 -10.28010 -10.27902 -10.26024 -10.25064
 Alpha  occ. eigenvalues --  -10.24844 -10.24774 -10.24536 -10.24492 -10.24344
 Alpha  occ. eigenvalues --  -10.24325 -10.24209 -10.24147 -10.24123 -10.24093
 Alpha  occ. eigenvalues --  -10.23922 -10.23885 -10.23789 -10.23611 -10.23459
 Alpha  occ. eigenvalues --  -10.23366 -10.23264 -10.23122 -10.22967 -10.22955
 Alpha  occ. eigenvalues --  -10.22758 -10.22709 -10.22694 -10.22679 -10.22641
 Alpha  occ. eigenvalues --  -10.22346 -10.22243 -10.22103  -6.61102  -6.59375
 Alpha  occ. eigenvalues --   -4.75165  -4.75136  -4.74626  -4.73448  -4.73414
 Alpha  occ. eigenvalues --   -4.72881  -3.45933  -2.24915  -2.20198  -2.20123
 Alpha  occ. eigenvalues --   -1.14078  -1.13556  -0.92392  -0.90379  -0.87759
 Alpha  occ. eigenvalues --   -0.87020  -0.81979  -0.81494  -0.81351  -0.79245
 Alpha  occ. eigenvalues --   -0.78844  -0.78320  -0.76930  -0.75921  -0.75220
 Alpha  occ. eigenvalues --   -0.73919  -0.72965  -0.72829  -0.72122  -0.70052
 Alpha  occ. eigenvalues --   -0.69487  -0.66426  -0.65678  -0.62607  -0.62020
 Alpha  occ. eigenvalues --   -0.61575  -0.61467  -0.60214  -0.59131  -0.57226
 Alpha  occ. eigenvalues --   -0.56771  -0.56446  -0.56002  -0.55694  -0.55399
 Alpha  occ. eigenvalues --   -0.55106  -0.55026  -0.54067  -0.52542  -0.51598
 Alpha  occ. eigenvalues --   -0.49930  -0.49454  -0.48297  -0.47769  -0.47643
 Alpha  occ. eigenvalues --   -0.47374  -0.46110  -0.45337  -0.45024  -0.44510
 Alpha  occ. eigenvalues --   -0.44325  -0.43628  -0.43338  -0.43197  -0.42677
 Alpha  occ. eigenvalues --   -0.42477  -0.42255  -0.42169  -0.41860  -0.41724
 Alpha  occ. eigenvalues --   -0.41701  -0.41346  -0.41128  -0.40497  -0.40358
 Alpha  occ. eigenvalues --   -0.40114  -0.39797  -0.39392  -0.39334  -0.38907
 Alpha  occ. eigenvalues --   -0.38586  -0.38102  -0.37642  -0.37387  -0.37228
 Alpha  occ. eigenvalues --   -0.37002  -0.36564  -0.35531  -0.35222  -0.35035
 Alpha  occ. eigenvalues --   -0.33426  -0.32545  -0.29854  -0.29431  -0.28859
 Alpha  occ. eigenvalues --   -0.28561  -0.28255  -0.27133  -0.26976  -0.26339
 Alpha  occ. eigenvalues --   -0.25881  -0.25319  -0.25246  -0.25022  -0.24485
 Alpha  occ. eigenvalues --   -0.22274  -0.22024  -0.22010  -0.18247
 Alpha virt. eigenvalues --   -0.02218  -0.00845  -0.00533  -0.00440   0.00009
 Alpha virt. eigenvalues --    0.00287   0.00418   0.01270   0.03463   0.04518
 Alpha virt. eigenvalues --    0.05645   0.05987   0.06466   0.07005   0.07059

 Mulliken charges:
               1
     1  P    0.394365
     2  P    0.273002
     3  C   -0.315514
     4  C   -0.327126
     5  C   -0.173457
     6  C   -0.009592
     7  C   -0.092964
     8  C   -0.044324
     9  C   -0.083656
    10  H    0.160053
    11  H    0.133616
    12  H    0.171323
    13  H    0.135247
    14  H    0.111767
    15  C   -0.083557
    16  C   -0.144773
    17  C   -0.031853
    18  C   -0.189721
    19  C   -0.092148
    20  C   -0.073053
    21  H    0.123133
    22  C   -0.089840
    23  C   -0.077853
    24  C   -0.149314
    25  C   -0.107209
    26  C   -0.051751
    27  C   -0.141214
    28  H    0.125347
    29  Fe  -0.222637
    30  C   -0.085308
    31  C   -0.067971
    32  C   -0.101961
    33  C   -0.101566
    34  C   -0.093529
    35  H    0.115007
    36  H    0.141217
    37  H    0.127829
    38  H    0.113057
    39  H    0.093222
    40  H    0.090132
    41  H    0.109030
    42  H    0.103932
    43  H    0.115790
    44  C    0.018028
    45  C   -0.160253
    46  O   -0.233751
    47  C   -0.141374
    48  H    0.119556
    49  C    0.037416
    50  H    0.110304
    51  H    0.122578
    52  C   -0.023313
    53  C   -0.158854
    54  O   -0.236033
    55  C   -0.136543
    56  H    0.129337
    57  C    0.032837
    58  H    0.105766
    59  H    0.118719
    60  C   -0.320829
    61  H    0.126825
    62  H    0.173687
    63  H    0.164171
    64  C   -0.327813
    65  H    0.144737
    66  H    0.133720
    67  H    0.174461
    68  H    0.078345
    69  H    0.089363
    70  H    0.078158
    71  H    0.095575
 Sum of Mulliken charges =  -0.00000

 Dipole moment (field-independent basis, Debye):
    X=              1.8951    Y=             -0.7598    Z=              2.1994  Tot=              3.0010
 Quadrupole moment (field-independent basis, Debye-Ang):
   XX=           -245.3306   YY=           -235.4035   ZZ=           -236.3410
   XY=              5.3271   XZ=             -4.1409   YZ=              3.0356

 Summary of Natural Population Analysis:

                                       Natural Population
                Natural  -----------------------------------------------
    Atom  No    Charge         Core      Valence    Rydberg      Total
 -----------------------------------------------------------------------
      P    1    0.85344      9.99765     4.09871    0.05020    14.14656
      P    2    0.80319      9.99817     4.15624    0.04239    14.19681
      C    3   -0.51839      1.99899     4.49762    0.02178     6.51839
      C    4   -0.62686      1.99926     4.61515    0.01245     6.62686
      C    5   -0.39460      1.99853     4.36316    0.03290     6.39460
      C    6   -0.04018      1.99859     4.01017    0.03141     6.04018
      C    7   -0.23181      1.99866     4.21119    0.02197     6.23181
      C    8   -0.22508      1.99867     4.20266    0.02375     6.22508
      C    9   -0.22070      1.99863     4.19608    0.02599     6.22070
      H   10    0.27476      0.00000     0.72133    0.00391     0.72524
      H   11    0.21609      0.00000     0.78170    0.00220     0.78391
      H   12    0.23369      0.00000     0.76483    0.00148     0.76631
      H   13    0.21618      0.00000     0.78195    0.00187     0.78382
      H   14    0.25776      0.00000     0.74077    0.00147     0.74224
      C   15   -0.20124      1.99893     4.18657    0.01574     6.20124
      C   16   -0.22188      1.99888     4.20728    0.01572     6.22188
      C   17   -0.01964      1.99881     4.00289    0.01795     6.01964
      C   18   -0.35474      1.99881     4.32996    0.02597     6.35474
      C   19   -0.18817      1.99890     4.16861    0.02065     6.18817
      C   20   -0.22491      1.99891     4.20928    0.01671     6.22491
      H   21    0.24312      0.00000     0.75424    0.00264     0.75688
      C   22   -0.22364      1.99894     4.20864    0.01606     6.22364
      C   23   -0.21859      1.99893     4.20375    0.01591     6.21859
      C   24   -0.21683      1.99889     4.19984    0.01810     6.21683
      C   25   -0.33631      1.99884     4.31386    0.02360     6.33631
      C   26   -0.04312      1.99884     4.02680    0.01747     6.04312
      C   27   -0.21213      1.99889     4.19747    0.01578     6.21213
      H   28    0.23245      0.00000     0.76456    0.00299     0.76755
     Fe   29    0.00096     17.99293     7.98808    0.01802    25.99904
      C   30   -0.23989      1.99867     4.21821    0.02301     6.23989
      C   31   -0.23543      1.99867     4.21408    0.02268     6.23543
      C   32   -0.23587      1.99867     4.21390    0.02330     6.23587
      C   33   -0.24123      1.99868     4.21948    0.02307     6.24123
      C   34   -0.24481      1.99868     4.22287    0.02326     6.24481
      H   35    0.24592      0.00000     0.75295    0.00113     0.75408
      H   36    0.25137      0.00000     0.74585    0.00279     0.74863
      H   37    0.25471      0.00000     0.74318    0.00211     0.74529
      H   38    0.24234      0.00000     0.75620    0.00145     0.75766
      H   39    0.22277      0.00000     0.77552    0.00172     0.77723
      H   40    0.22177      0.00000     0.77653    0.00171     0.77823
      H   41    0.24806      0.00000     0.75071    0.00123     0.75194
      H   42    0.25175      0.00000     0.74707    0.00118     0.74825
      H   43    0.24658      0.00000     0.75229    0.00113     0.75342
      C   44   -0.00509      1.99877     3.96609    0.04023     6.00509
      C   45   -0.29494      1.99885     4.28013    0.01596     6.29494
      O   46   -0.47127      1.99964     6.46039    0.01123     8.47127
      C   47   -0.32807      1.99896     4.31450    0.01462     6.32807
      H   48    0.24274      0.00000     0.75626    0.00101     0.75726
      C   49    0.12824      1.99892     3.84547    0.02737     5.87176
      H   50    0.23571      0.00000     0.76336    0.00094     0.76429
      H   51    0.20943      0.00000     0.78984    0.00073     0.79057
      C   52   -0.00492      1.99879     3.96596    0.04017     6.00492
      C   53   -0.30523      1.99885     4.28891    0.01747     6.30523
      O   54   -0.47076      1.99964     6.46000    0.01113     8.47076
      C   55   -0.32574      1.99896     4.31172    0.01506     6.32574
      H   56    0.24709      0.00000     0.75151    0.00140     0.75291
      C   57    0.12588      1.99891     3.84802    0.02718     5.87412
      H   58    0.23470      0.00000     0.76440    0.00090     0.76530
      H   59    0.20667      0.00000     0.79262    0.00071     0.79333
      C   60   -0.64156      1.99920     4.63148    0.01087     6.64156
      H   61    0.22384      0.00000     0.77470    0.00147     0.77616
      H   62    0.23500      0.00000     0.76286    0.00214     0.76500
      H   63    0.22920      0.00000     0.76879    0.00201     0.77080
      C   64   -0.64917      1.99923     4.63936    0.01057     6.64917
      H   65    0.22374      0.00000     0.77426    0.00200     0.77626
      H   66    0.22885      0.00000     0.76966    0.00149     0.77115
      H   67    0.23476      0.00000     0.76328    0.00196     0.76524
      H   68    0.21954      0.00000     0.77864    0.00182     0.78046
      H   69    0.22239      0.00000     0.77588    0.00173     0.77761
      H   70    0.21958      0.00000     0.77856    0.00186     0.78042
      H   71    0.22852      0.00000     0.76970    0.00178     0.77148
 =======================================================================
   * Total *   -0.00000    109.94877   197.13856    0.91267   308.00000

 Normal termination of Gaussian 16 at Fri Sep 29 19:33:32 2023.
