 Gaussian 16, Revision C.02,
 Gaussian 16:  ES64L-G16RevC.02  7-Dec-2021

 ----------------------------------------------------------------------
 #p pop=nbo pbe1pbe/def2svpp empiricaldispersion=gd3bj integral=grid=ul
 trafinegrid scf=(xqc,maxconventionalcycles=90) nosymm
 ----------------------------------------------------------------------

 ----
 Cisa
 ----
 Symbolic Z-matrix:
 Charge =  0 Multiplicity = 1

                          Input orientation:
 ---------------------------------------------------------------------
 Center     Atomic      Atomic             Coordinates (Angstroms)
 Number     Number       Type             X           Y           Z
 ---------------------------------------------------------------------
      1         15           0        0.156390    0.966040   -0.807580
      2          6           0        1.197700    0.542830   -2.238670
      3          6           0        0.602660   -0.099410   -3.330750
      4          6           0        1.381250   -0.508910   -4.413530
      5          6           0        2.754490   -0.266170   -4.413390
      6          6           0        3.350290    0.384380   -3.330240
      7          6           0        2.577230    0.783950   -2.243400
      8          6           0        0.712010    2.608280   -0.241500
      9          6           0        0.445750    3.011590    1.075660
     10          6           0        0.707280    4.319190    1.476870
     11          6           0        1.231360    5.241470    0.569460
     12          6           0        1.490160    4.849530   -0.743090
     13          6           0        1.228120    3.541280   -1.150480
     14         15           0       -2.631780   -0.717760   -0.093270
     15          6           0       -1.263330   -1.977780    0.101140
     16          6           0       -1.717670   -3.311740    0.676070
     17          6           0        0.582140   -0.151950    0.544750
     18          6           0       -0.162710   -1.338320    0.898320
     19          6           0        0.334070   -1.788240    2.157730
     20          6           0        1.387080   -0.924980    2.568850
     21          6           0        1.552980    0.076930    1.577300
     22          1           0       -0.479720   -0.276880   -3.322080
     23          1           0        3.048850    1.283810   -1.392040
     24          1           0        0.034050    2.298230    1.795240
     25          1           0        1.428000    3.249460   -2.185450
     26          1           0       -0.905920   -2.131510   -0.933110
     27          1           0       -0.866760   -4.013620    0.704960
     28          1           0       -2.515200   -3.762370    0.064770
     29          1           0       -2.094290   -3.199440    1.704730
     30          1           0        2.280820    0.887510    1.594300
     31          6           0       -3.575470    0.532450    4.218890
     32          6           0       -3.982670   -0.743080    3.804590
     33          6           0       -3.729050   -1.126400    2.485280
     34          6           0       -3.088580   -0.249010    1.600430
     35          6           0       -2.714070    1.025060    2.036810
     36          6           0       -2.942530    1.430360    3.355830
     37          1           0       -4.055830   -2.112940    2.144120
     38          1           0       -2.243210    1.713580    1.324590
     39          6           0       -6.173670   -2.774680   -2.163500
     40          6           0       -6.431910   -1.953960   -1.063540
     41          6           0       -5.345330   -1.374330   -0.394330
     42          6           0       -4.036920   -1.609610   -0.821820
     43          6           0       -3.808580   -2.422950   -1.941210
     44          6           0       -4.871400   -3.022790   -2.618880
     45          1           0       -5.531650   -0.734030    0.473310
     46          1           0       -2.787930   -2.592330   -2.301600
     47         26           0        1.818460   -1.764250    0.752890
     48          6           0        2.728140   -3.587320    0.902240
     49          6           0        3.698580   -2.545180    0.930620
     50          6           0        3.585480   -1.804650   -0.280670
     51          6           0        2.546840   -2.392120   -1.060990
     52          6           0        2.018290   -3.492710   -0.330350
     53          1           0        2.544810   -4.313210    1.694800
     54          1           0        4.183050   -0.937040   -0.556770
     55          1           0        2.207970   -2.048730   -2.038140
     56          1           0        1.203950   -4.142360   -0.652810
     57          1           0        3.366190   -0.583080   -5.262880
     58          1           0        1.438760    6.267220    0.887070
     59          1           0       -3.770140    0.838540    5.252920
     60          1           0       -7.015520   -3.238920   -2.688680
     61          6           0       -4.677230   -1.668520    4.762390
     62          1           0       -5.611140   -1.219360    5.143670
     63          1           0       -4.933560   -2.627830    4.285030
     64          1           0       -4.041030   -1.884890    5.638610
     65          6           0       -2.491810    2.782340    3.831330
     66          1           0       -3.187150    3.204150    4.575620
     67          1           0       -1.498830    2.715670    4.313950
     68          1           0       -2.406640    3.496300    2.995320
     69          6           0       -7.839510   -1.672520   -0.622130
     70          1           0       -7.888600   -1.451110    0.456570
     71          1           0       -8.250190   -0.796550   -1.157550
     72          1           0       -8.506490   -2.524900   -0.830260
     73          6           0       -4.633390   -3.926030   -3.794800
     74          1           0       -5.296860   -3.670530   -4.638470
     75          1           0       -3.591110   -3.867270   -4.147780
     76          1           0       -4.837730   -4.979090   -3.529580
     77          1           0        1.989480   -1.038090    3.470050
     78          1           0       -0.000030   -2.674230    2.694800
     79          1           0        4.386410   -2.333840    1.749620
     80          1           0        0.500880    4.619590    2.508360
     81          1           0        1.901050    5.566450   -1.459650
     82          1           0        4.427240    0.575690   -3.332450
     83          1           0        0.913260   -1.014660   -5.262830
 ---------------------------------------------------------------------

 SCF Done:  E(RPBE1PBE) =  -3491.04444320     A.U. after   19 cycles

 Alpha  occ. eigenvalues -- -256.34724 -77.18855 -77.17754 -30.12201 -25.97042
 Alpha  occ. eigenvalues --  -25.95169 -25.95142 -10.25125 -10.24709 -10.24591
 Alpha  occ. eigenvalues --  -10.24501 -10.24376 -10.24334 -10.24327 -10.24299
 Alpha  occ. eigenvalues --  -10.24295 -10.24271 -10.24230 -10.24227 -10.23950
 Alpha  occ. eigenvalues --  -10.23884 -10.23853 -10.23831 -10.23780 -10.23772
 Alpha  occ. eigenvalues --  -10.23720 -10.23699 -10.23634 -10.23537 -10.23513
 Alpha  occ. eigenvalues --  -10.23394 -10.23372 -10.23301 -10.23257 -10.23209
 Alpha  occ. eigenvalues --  -10.23052 -10.22998 -10.22993 -10.22860 -10.22625
 Alpha  occ. eigenvalues --  -10.22555 -10.22482 -10.22334 -10.22128 -10.22078
 Alpha  occ. eigenvalues --  -10.21978 -10.21742  -6.59891  -6.58826  -4.73947
 Alpha  occ. eigenvalues --   -4.73934  -4.73411  -4.72884  -4.72862  -4.72326
 Alpha  occ. eigenvalues --   -3.45378  -2.24359  -2.19626  -2.19577  -0.91834
 Alpha  occ. eigenvalues --   -0.89937  -0.88183  -0.87872  -0.87199  -0.87057
 Alpha  occ. eigenvalues --   -0.81364  -0.79832  -0.79361  -0.78633  -0.77940
 Alpha  occ. eigenvalues --   -0.76817  -0.76799  -0.76057  -0.75650  -0.73354
 Alpha  occ. eigenvalues --   -0.72571  -0.72443  -0.71554  -0.70557  -0.69989
 Alpha  occ. eigenvalues --   -0.69291  -0.68760  -0.66450  -0.65690  -0.62529
 Alpha  occ. eigenvalues --   -0.62362  -0.61717  -0.61020  -0.60135  -0.58709
 Alpha  occ. eigenvalues --   -0.58421  -0.57901  -0.56199  -0.55477  -0.55119
 Alpha  occ. eigenvalues --   -0.54794  -0.54454  -0.53689  -0.52888  -0.52076
 Alpha  occ. eigenvalues --   -0.50653  -0.50178  -0.49633  -0.48936  -0.48386
 Alpha  occ. eigenvalues --   -0.47466  -0.46732  -0.46341  -0.45815  -0.45473
 Alpha  occ. eigenvalues --   -0.44205  -0.44089  -0.43897  -0.43784  -0.43463
 Alpha  occ. eigenvalues --   -0.43272  -0.43036  -0.42598  -0.42545  -0.42356
 Alpha  occ. eigenvalues --   -0.42183  -0.42031  -0.41733  -0.41509  -0.41369
 Alpha  occ. eigenvalues --   -0.41226  -0.40853  -0.40774  -0.40622  -0.40347
 Alpha  occ. eigenvalues --   -0.39934  -0.39221  -0.39043  -0.38581  -0.38352
 Alpha  occ. eigenvalues --   -0.38218  -0.38068  -0.37980  -0.37422  -0.37066
 Alpha  occ. eigenvalues --   -0.36601  -0.36231  -0.35901  -0.35776  -0.35436
 Alpha  occ. eigenvalues --   -0.35076  -0.34781  -0.34730  -0.33669  -0.32902
 Alpha  occ. eigenvalues --   -0.32013  -0.28812  -0.28199  -0.27885  -0.27749
 Alpha  occ. eigenvalues --   -0.27359  -0.26752  -0.26414  -0.25807  -0.25714
 Alpha  occ. eigenvalues --   -0.25325  -0.25030  -0.24668  -0.24437  -0.22587
 Alpha  occ. eigenvalues --   -0.21515  -0.21267  -0.17599
 Alpha virt. eigenvalues --   -0.02530  -0.01791  -0.01242  -0.01012  -0.00558
 Alpha virt. eigenvalues --   -0.00153  -0.00004   0.00258   0.00817   0.00905
 Alpha virt. eigenvalues --    0.03614   0.04669   0.06328   0.06629   0.06993

 Mulliken charges:
               1
     1  P    0.409586
     2  C   -0.138461
     3  C   -0.111899
     4  C   -0.098184
     5  C   -0.090332
     6  C   -0.090141
     7  C   -0.117166
     8  C   -0.124366
     9  C   -0.167690
    10  C   -0.090270
    11  C   -0.100312
    12  C   -0.083396
    13  C   -0.147635
    14  P    0.335780
    15  C   -0.329304
    16  C   -0.308669
    17  C   -0.153195
    18  C   -0.023231
    19  C   -0.073073
    20  C   -0.036286
    21  C   -0.108075
    22  H    0.111466
    23  H    0.118224
    24  H    0.138384
    25  H    0.112835
    26  H    0.158929
    27  H    0.136286
    28  H    0.155179
    29  H    0.142293
    30  H    0.118791
    31  C   -0.177226
    32  C    0.017339
    33  C   -0.186786
    34  C   -0.119826
    35  C   -0.166285
    36  C    0.015904
    37  H    0.101147
    38  H    0.114336
    39  C   -0.191977
    40  C    0.021768
    41  C   -0.199993
    42  C   -0.068112
    43  C   -0.203631
    44  C    0.023846
    45  H    0.098446
    46  H    0.076590
    47  Fe  -0.219338
    48  C   -0.083848
    49  C   -0.068646
    50  C   -0.088323
    51  C   -0.103936
    52  C   -0.089956
    53  H    0.112643
    54  H    0.107339
    55  H    0.140641
    56  H    0.109509
    57  H    0.102164
    58  H    0.093513
    59  H    0.065801
    60  H    0.061105
    61  C   -0.291666
    62  H    0.138885
    63  H    0.129087
    64  H    0.138005
    65  C   -0.304188
    66  H    0.132460
    67  H    0.146995
    68  H    0.143099
    69  C   -0.292501
    70  H    0.130724
    71  H    0.145607
    72  H    0.128607
    73  C   -0.292086
    74  H    0.135628
    75  H    0.125708
    76  H    0.140650
    77  H    0.106667
    78  H    0.098823
    79  H    0.114205
    80  H    0.091994
    81  H    0.094144
    82  H    0.098290
    83  H    0.100584
 Sum of Mulliken charges =  -0.00000

 Dipole moment (field-independent basis, Debye):
    X=              0.8089    Y=             -1.2024    Z=              1.3617  Tot=              1.9886
 Quadrupole moment (field-independent basis, Debye-Ang):
   XX=           -266.6745   YY=           -268.7621   ZZ=           -253.6043
   XY=             10.7550   XZ=             -6.2701   YZ=              5.3290

 Summary of Natural Population Analysis:

                                       Natural Population
                Natural  -----------------------------------------------
    Atom  No    Charge         Core      Valence    Rydberg      Total
 -----------------------------------------------------------------------
      P    1    0.88382      9.99787     4.07201    0.04630    14.11618
      C    2   -0.34920      1.99885     4.32349    0.02686     6.34920
      C    3   -0.20385      1.99887     4.18705    0.01793     6.20385
      C    4   -0.22448      1.99893     4.20973    0.01582     6.22448
      C    5   -0.21389      1.99895     4.19933    0.01562     6.21389
      C    6   -0.22212      1.99893     4.20704    0.01616     6.22212
      C    7   -0.20960      1.99890     4.19053    0.02017     6.20960
      C    8   -0.34404      1.99891     4.32074    0.02440     6.34404
      C    9   -0.22929      1.99890     4.21217    0.01822     6.22929
      C   10   -0.21452      1.99893     4.19970    0.01588     6.21452
      C   11   -0.23249      1.99895     4.21761    0.01593     6.23249
      C   12   -0.21166      1.99894     4.19681    0.01591     6.21166
      C   13   -0.22390      1.99890     4.20732    0.01768     6.22390
      P   14    0.84361      9.99808     4.11401    0.04429    14.15639
      C   15   -0.51077      1.99900     4.48913    0.02265     6.51077
      C   16   -0.62833      1.99926     4.61646    0.01262     6.62833
      C   17   -0.39146      1.99857     4.36149    0.03140     6.39146
      C   18   -0.05781      1.99858     4.02675    0.03248     6.05781
      C   19   -0.21821      1.99864     4.19739    0.02219     6.21821
      C   20   -0.22466      1.99866     4.20233    0.02367     6.22466
      C   21   -0.22530      1.99864     4.20054    0.02612     6.22530
      H   22    0.23828      0.00000     0.75974    0.00199     0.76172
      H   23    0.23682      0.00000     0.76120    0.00198     0.76318
      H   24    0.23135      0.00000     0.76553    0.00312     0.76865
      H   25    0.23235      0.00000     0.76559    0.00206     0.76765
      H   26    0.26339      0.00000     0.73316    0.00345     0.73661
      H   27    0.21493      0.00000     0.78261    0.00246     0.78507
      H   28    0.23306      0.00000     0.76565    0.00130     0.76694
      H   29    0.21824      0.00000     0.77997    0.00178     0.78176
      H   30    0.25795      0.00000     0.74075    0.00130     0.74205
      C   31   -0.20426      1.99884     4.18965    0.01576     6.20426
      C   32   -0.03475      1.99886     4.02032    0.01556     6.03475
      C   33   -0.21789      1.99884     4.20105    0.01800     6.21789
      C   34   -0.34580      1.99888     4.31914    0.02778     6.34580
      C   35   -0.19943      1.99883     4.18243    0.01817     6.19943
      C   36   -0.03328      1.99886     4.01897    0.01545     6.03328
      H   37    0.23007      0.00000     0.76794    0.00199     0.76993
      H   38    0.23552      0.00000     0.76228    0.00220     0.76448
      C   39   -0.22871      1.99884     4.21389    0.01598     6.22871
      C   40   -0.02550      1.99887     4.01104    0.01558     6.02550
      C   41   -0.22884      1.99885     4.21238    0.01761     6.22884
      C   42   -0.33112      1.99891     4.30866    0.02355     6.33112
      C   43   -0.23528      1.99885     4.21931    0.01711     6.23528
      C   44   -0.02789      1.99887     4.01337    0.01565     6.02789
      H   45    0.22959      0.00000     0.76837    0.00204     0.77041
      H   46    0.21621      0.00000     0.78168    0.00211     0.78379
     Fe   47    0.01223     17.99289     7.97674    0.01813    25.98777
      C   48   -0.23897      1.99866     4.21749    0.02283     6.23897
      C   49   -0.23774      1.99866     4.21629    0.02279     6.23774
      C   50   -0.24361      1.99868     4.22217    0.02276     6.24361
      C   51   -0.23560      1.99870     4.21339    0.02351     6.23560
      C   52   -0.24543      1.99868     4.22347    0.02328     6.24543
      H   53    0.24525      0.00000     0.75359    0.00116     0.75475
      H   54    0.24476      0.00000     0.75379    0.00145     0.75524
      H   55    0.24956      0.00000     0.74694    0.00350     0.75044
      H   56    0.24275      0.00000     0.75581    0.00145     0.75725
      H   57    0.22619      0.00000     0.77213    0.00167     0.77381
      H   58    0.22203      0.00000     0.77630    0.00167     0.77797
      H   59    0.21632      0.00000     0.78177    0.00191     0.78368
      H   60    0.21486      0.00000     0.78324    0.00190     0.78514
      C   61   -0.63164      1.99923     4.62300    0.00940     6.63164
      H   62    0.22676      0.00000     0.77169    0.00155     0.77324
      H   63    0.22041      0.00000     0.77825    0.00134     0.77959
      H   64    0.22616      0.00000     0.77228    0.00156     0.77384
      C   65   -0.63406      1.99923     4.62536    0.00947     6.63406
      H   66    0.22301      0.00000     0.77554    0.00145     0.77699
      H   67    0.22769      0.00000     0.77067    0.00164     0.77231
      H   68    0.22685      0.00000     0.77157    0.00159     0.77315
      C   69   -0.63040      1.99923     4.62185    0.00932     6.63040
      H   70    0.22194      0.00000     0.77662    0.00144     0.77806
      H   71    0.22956      0.00000     0.76883    0.00161     0.77044
      H   72    0.22046      0.00000     0.77807    0.00147     0.77954
      C   73   -0.63020      1.99923     4.62165    0.00932     6.63020
      H   74    0.22530      0.00000     0.77318    0.00152     0.77470
      H   75    0.21834      0.00000     0.78028    0.00138     0.78166
      H   76    0.22708      0.00000     0.77132    0.00160     0.77292
      H   77    0.24701      0.00000     0.75179    0.00119     0.75299
      H   78    0.25142      0.00000     0.74733    0.00125     0.74858
      H   79    0.24564      0.00000     0.75323    0.00114     0.75436
      H   80    0.22253      0.00000     0.77578    0.00169     0.77747
      H   81    0.22331      0.00000     0.77498    0.00170     0.77669
      H   82    0.22610      0.00000     0.77215    0.00175     0.77390
      H   83    0.22732      0.00000     0.77101    0.00168     0.77268
 =======================================================================
   * Total *    0.00000    117.94376   217.11591    0.94033   336.00000

 Normal termination of Gaussian 16 at Fri Sep 29 19:34:19 2023.
