 Gaussian 16, Revision C.01,
 Gaussian 16:  ES64L-G16RevC.01  3-Jul-2019

 ----------------------------------------------------------------------
 #p pop=nbo NMR pbe1pbe/def2svpp empiricaldispersion=gd3bj integral=gri
 d=ultrafinegrid scf=(xqc,maxconventionalcycles=90) nosymm
 ----------------------------------------------------------------------

 ----
 Cisa
 ----
 Symbolic Z-matrix:
 Charge =  0 Multiplicity = 1

                          Input orientation:
 ---------------------------------------------------------------------
 Center     Atomic      Atomic             Coordinates (Angstroms)
 Number     Number       Type             X           Y           Z
 ---------------------------------------------------------------------
      1         15           0        1.856410    0.515050   -0.152820
      2         15           0       -1.170270    1.266360    1.608520
      3          7           0        1.685830   -1.126020   -0.642790
      4          7           0       -1.998800    0.043420    0.755370
      5          6           0       -0.530920   -2.096230   -0.409970
      6          6           0       -1.079120   -1.006790   -1.249630
      7          6           0       -1.388400   -3.097590    0.143330
      8          6           0       -0.809590   -0.953220   -2.650780
      9          6           0        0.828490   -2.125130   -0.137360
     10          6           0       -1.802040    0.010820   -0.647010
     11          6           0       -0.829120   -4.134580    0.953440
     12          6           0       -1.258630    0.172010   -3.409910
     13          6           0        1.378740   -3.181230    0.637310
     14          6           0       -2.301580    1.092000   -1.421490
     15          6           0        0.572850   -4.158130    1.164070
     16          6           0       -2.028550    1.171940   -2.765570
     17          6           0       -2.788770   -3.108200   -0.095990
     18          6           0       -0.060800   -1.960940   -3.311990
     19          6           0       -1.683340   -5.118360    1.511270
     20          6           0       -0.921720    0.260360   -4.785580
     21          6           0       -3.592460   -4.077520    0.461870
     22          6           0        0.255170   -1.844890   -4.646650
     23          6           0       -3.038830   -5.089400    1.277650
     24          6           0       -0.171870   -0.721190   -5.391630
     25          6           0        3.102740    0.911680   -1.429200
     26          6           0        2.802020    0.490010    1.412670
     27          6           0       -2.471740    2.385140    2.226200
     28          6           0       -0.529550    0.432990    3.099390
     29          6           0        2.746850    0.713740   -2.772110
     30          6           0        3.722910   -0.527150    1.690990
     31          6           0       -3.812000    2.137630    1.909330
     32          6           0       -0.681010    0.958960    4.388280
     33          6           0        4.357240    1.445750   -1.114810
     34          6           0        2.564980    1.480810    2.371080
     35          6           0       -2.142760    3.532120    2.963530
     36          6           0        0.203280   -0.747490    2.927130
     37          6           0        3.641060    1.048680   -3.785990
     38          6           0        4.382570   -0.560850    2.916630
     39          6           0       -4.806630    3.023220    2.323330
     40          6           0       -0.082620    0.325240    5.476590
     41          6           0        5.246740    1.782000   -2.135990
     42          6           0        3.226580    1.450150    3.596760
     43          6           0       -3.138910    4.411770    3.380810
     44          6           0        0.789610   -1.383930    4.015400
     45          6           0        4.890090    1.586150   -3.469770
     46          6           0        4.129080    0.424120    3.873320
     47          6           0       -4.472840    4.160660    3.057100
     48          6           0        0.658360   -0.841300    5.293410
     49          1           0        2.565370   -1.495890   -0.998020
     50          1           0       -2.132160   -0.853900    1.218680
     51          1           0        2.455100   -3.193240    0.826550
     52          1           0       -2.935350    1.835410   -0.933860
     53          1           0        1.004960   -4.963160    1.765810
     54          1           0       -2.415790    2.007280   -3.356410
     55          1           0       -3.224410   -2.341860   -0.742970
     56          1           0        0.265220   -2.835040   -2.743110
     57          1           0       -1.243620   -5.905740    2.130780
     58          1           0       -1.273380    1.123770   -5.358790
     59          1           0       -4.668130   -4.070410    0.263920
     60          1           0        0.834480   -2.631370   -5.138740
     61          1           0       -3.688810   -5.852960    1.713650
     62          1           0        0.081870   -0.643430   -6.452610
     63          1           0        1.772340    0.282020   -3.025430
     64          1           0        3.932270   -1.300540    0.945930
     65          1           0       -4.068410    1.240170    1.339400
     66          1           0       -1.282230    1.854130    4.558620
     67          1           0        4.642390    1.598400   -0.069700
     68          1           0        1.835620    2.268500    2.148150
     69          1           0       -1.102360    3.738690    3.232540
     70          1           0        0.317710   -1.182290    1.932850
     71          1           0        3.358540    0.886670   -4.830170
     72          1           0        5.098860   -1.359930    3.128530
     73          1           0       -5.851770    2.818860    2.073680
     74          1           0       -0.209480    0.743540    6.479170
     75          1           0        6.228350    2.194170   -1.885280
     76          1           0        3.026750    2.222410    4.344570
     77          1           0       -2.872060    5.299640    3.961060
     78          1           0        1.355790   -2.305560    3.856240
     79          1           0        5.590760    1.849310   -4.267350
     80          1           0        4.640880    0.390920    4.839480
     81          1           0       -5.254270    4.853930    3.380890
     82          1           0        1.125110   -1.334400    6.150900
 ---------------------------------------------------------------------

 SCF Done:  E(RPBE1PBE) =  -2485.58458732     A.U. after   16 cycles

      1  P    Isotropic =   367.2157   Anisotropy =    67.8488

      2  P    Isotropic =   354.3024   Anisotropy =    94.9358

      3  N    Isotropic =   190.1888   Anisotropy =    70.7222

      4  N    Isotropic =   202.0942   Anisotropy =    30.2294

      5  C    Isotropic =    62.6829   Anisotropy =   150.1615

      6  C    Isotropic =    64.7647   Anisotropy =   140.6427

      7  C    Isotropic =    62.1956   Anisotropy =   201.9960

      8  C    Isotropic =    63.7989   Anisotropy =   198.9561

      9  C    Isotropic =    55.1009   Anisotropy =   145.3611

     10  C    Isotropic =    49.7356   Anisotropy =   152.1355

     11  C    Isotropic =    65.1518   Anisotropy =   204.7890

     12  C    Isotropic =    65.0324   Anisotropy =   204.6189

     13  C    Isotropic =    66.1305   Anisotropy =   147.6508

     14  C    Isotropic =    68.3252   Anisotropy =   153.4061

     15  C    Isotropic =    63.6525   Anisotropy =   154.0741

     16  C    Isotropic =    63.5347   Anisotropy =   153.6246

     17  C    Isotropic =    68.8562   Anisotropy =   166.4882

     18  C    Isotropic =    67.1112   Anisotropy =   167.8943

     19  C    Isotropic =    64.8281   Anisotropy =   155.6105

     20  C    Isotropic =    64.8000   Anisotropy =   155.2378

     21  C    Isotropic =    66.5236   Anisotropy =   174.4165

     22  C    Isotropic =    68.2397   Anisotropy =   171.9500

     23  C    Isotropic =    69.1833   Anisotropy =   171.5774

     24  C    Isotropic =    70.4243   Anisotropy =   169.5287

     25  C    Isotropic =    51.4933   Anisotropy =   186.6143

     26  C    Isotropic =    55.8134   Anisotropy =   192.4892

     27  C    Isotropic =    53.1437   Anisotropy =   185.1051

     28  C    Isotropic =    58.3635   Anisotropy =   183.6971

     29  C    Isotropic =    62.5453   Anisotropy =   180.6766

     30  C    Isotropic =    63.8187   Anisotropy =   186.7949

     31  C    Isotropic =    64.7801   Anisotropy =   184.7977

     32  C    Isotropic =    70.8452   Anisotropy =   178.2716

     33  C    Isotropic =    65.2763   Anisotropy =   177.0135

     34  C    Isotropic =    57.6462   Anisotropy =   190.7569

     35  C    Isotropic =    64.8913   Anisotropy =   174.6916

     36  C    Isotropic =    65.0263   Anisotropy =   186.9664

     37  C    Isotropic =    66.7552   Anisotropy =   173.5860

     38  C    Isotropic =    67.3401   Anisotropy =   176.2248

     39  C    Isotropic =    65.5935   Anisotropy =   175.8517

     40  C    Isotropic =    68.1242   Anisotropy =   173.0324

     41  C    Isotropic =    67.7209   Anisotropy =   172.6977

     42  C    Isotropic =    67.4592   Anisotropy =   181.2808

     43  C    Isotropic =    67.6400   Anisotropy =   173.2112

     44  C    Isotropic =    67.3428   Anisotropy =   179.1286

     45  C    Isotropic =    67.6798   Anisotropy =   174.1186

     46  C    Isotropic =    65.0378   Anisotropy =   182.0075

     47  C    Isotropic =    68.2062   Anisotropy =   172.9137

     48  C    Isotropic =    68.4327   Anisotropy =   176.1214

     49  H    Isotropic =    28.9160   Anisotropy =     9.2796

     50  H    Isotropic =    29.0690   Anisotropy =    14.4285

     51  H    Isotropic =    24.3090   Anisotropy =     8.2465

     52  H    Isotropic =    24.4105   Anisotropy =     9.1994

     53  H    Isotropic =    24.0350   Anisotropy =     6.4976

     54  H    Isotropic =    24.0686   Anisotropy =     7.1819

     55  H    Isotropic =    24.1319   Anisotropy =    14.8799

     56  H    Isotropic =    24.3286   Anisotropy =    14.9937

     57  H    Isotropic =    24.2111   Anisotropy =     7.4279

     58  H    Isotropic =    23.9974   Anisotropy =     6.7786

     59  H    Isotropic =    24.5547   Anisotropy =     7.6944

     60  H    Isotropic =    24.5060   Anisotropy =     7.3781

     61  H    Isotropic =    24.6331   Anisotropy =     4.3012

     62  H    Isotropic =    24.4223   Anisotropy =     3.4859

     63  H    Isotropic =    26.5534   Anisotropy =     9.5228

     64  H    Isotropic =    24.2921   Anisotropy =    10.8612

     65  H    Isotropic =    23.5904   Anisotropy =    13.3619

     66  H    Isotropic =    24.9634   Anisotropy =    11.2311

     67  H    Isotropic =    25.8114   Anisotropy =    14.1216

     68  H    Isotropic =    24.7011   Anisotropy =     6.7073

     69  H    Isotropic =    24.6188   Anisotropy =    10.9200

     70  H    Isotropic =    26.7276   Anisotropy =     9.9913

     71  H    Isotropic =    25.2110   Anisotropy =     9.5424

     72  H    Isotropic =    24.6690   Anisotropy =     5.9061

     73  H    Isotropic =    24.5019   Anisotropy =     6.8826

     74  H    Isotropic =    25.3358   Anisotropy =     4.7508

     75  H    Isotropic =    25.2132   Anisotropy =     6.3248

     76  H    Isotropic =    25.4922   Anisotropy =     5.7121

     77  H    Isotropic =    24.5956   Anisotropy =     5.7405

     78  H    Isotropic =    26.0828   Anisotropy =     8.3328

     79  H    Isotropic =    25.1453   Anisotropy =     4.4940

     80  H    Isotropic =    25.0759   Anisotropy =     3.0643

     81  H    Isotropic =    24.8065   Anisotropy =     3.5582

     82  H    Isotropic =    25.6305   Anisotropy =     5.0358

 Alpha  occ. eigenvalues --  -77.21038 -77.20827 -14.39386 -14.39288 -10.28432
 Alpha  occ. eigenvalues --  -10.27433 -10.25537 -10.25212 -10.25105 -10.24744
 Alpha  occ. eigenvalues --  -10.24538 -10.24502 -10.24337 -10.24276 -10.24237
 Alpha  occ. eigenvalues --  -10.24202 -10.24167 -10.24158 -10.24116 -10.24076
 Alpha  occ. eigenvalues --  -10.24026 -10.24006 -10.23933 -10.23889 -10.23824
 Alpha  occ. eigenvalues --  -10.23718 -10.23713 -10.23668 -10.23559 -10.23521
 Alpha  occ. eigenvalues --  -10.23517 -10.23473 -10.23470 -10.23406 -10.23400
 Alpha  occ. eigenvalues --  -10.23362 -10.23341 -10.23311 -10.23281 -10.23266
 Alpha  occ. eigenvalues --  -10.23254 -10.23214 -10.23196 -10.23144 -10.23144
 Alpha  occ. eigenvalues --  -10.23093 -10.23073 -10.23047  -6.61727  -6.61605
 Alpha  occ. eigenvalues --   -4.75899  -4.75777  -4.75691  -4.75573  -4.75225
 Alpha  occ. eigenvalues --   -4.75105  -0.94879  -0.93601  -0.89683  -0.88782
 Alpha  occ. eigenvalues --   -0.87702  -0.87274  -0.87090  -0.86843  -0.83985
 Alpha  occ. eigenvalues --   -0.83033  -0.81397  -0.78130  -0.77929  -0.77570
 Alpha  occ. eigenvalues --   -0.76385  -0.76160  -0.75956  -0.75831  -0.75607
 Alpha  occ. eigenvalues --   -0.75454  -0.75334  -0.74753  -0.74246  -0.72073
 Alpha  occ. eigenvalues --   -0.66811  -0.65848  -0.64833  -0.64304  -0.62961
 Alpha  occ. eigenvalues --   -0.62476  -0.62260  -0.62062  -0.61519  -0.61474
 Alpha  occ. eigenvalues --   -0.61351  -0.60873  -0.60630  -0.59077  -0.57873
 Alpha  occ. eigenvalues --   -0.57603  -0.55077  -0.54431  -0.53930  -0.53610
 Alpha  occ. eigenvalues --   -0.52865  -0.52721  -0.52489  -0.51781  -0.51419
 Alpha  occ. eigenvalues --   -0.50790  -0.48458  -0.47625  -0.47248  -0.47071
 Alpha  occ. eigenvalues --   -0.46730  -0.46472  -0.46289  -0.46169  -0.46088
 Alpha  occ. eigenvalues --   -0.45949  -0.45767  -0.45438  -0.44858  -0.44566
 Alpha  occ. eigenvalues --   -0.44383  -0.43955  -0.43628  -0.43486  -0.43302
 Alpha  occ. eigenvalues --   -0.43163  -0.43082  -0.42655  -0.42214  -0.41898
 Alpha  occ. eigenvalues --   -0.41684  -0.41083  -0.40515  -0.40230  -0.39531
 Alpha  occ. eigenvalues --   -0.38880  -0.38480  -0.38241  -0.37335  -0.37173
 Alpha  occ. eigenvalues --   -0.36815  -0.36662  -0.36252  -0.36140  -0.35871
 Alpha  occ. eigenvalues --   -0.35641  -0.35394  -0.35286  -0.34725  -0.34374
 Alpha  occ. eigenvalues --   -0.33784  -0.33569  -0.33340  -0.30910  -0.30823
 Alpha  occ. eigenvalues --   -0.29766  -0.29184  -0.28248  -0.28004  -0.27165
 Alpha  occ. eigenvalues --   -0.26796  -0.26450  -0.26352  -0.26036  -0.25799
 Alpha  occ. eigenvalues --   -0.25266  -0.24466  -0.23439  -0.22584  -0.21646
 Alpha  occ. eigenvalues --   -0.19108
 Alpha virt. eigenvalues --   -0.05167  -0.03807  -0.02746  -0.02150  -0.01506
 Alpha virt. eigenvalues --   -0.00913  -0.00829  -0.00666  -0.00344   0.00024
 Alpha virt. eigenvalues --    0.00237   0.00402   0.01875   0.03408   0.05280

 Mulliken charges:
               1
     1  P    0.550310
     2  P    0.505311
     3  N   -0.543685
     4  N   -0.565948
     5  C   -0.100640
     6  C   -0.014189
     7  C    0.034171
     8  C    0.063729
     9  C    0.136376
    10  C    0.169969
    11  C    0.086892
    12  C    0.071441
    13  C   -0.142031
    14  C   -0.140566
    15  C   -0.120499
    16  C   -0.118758
    17  C   -0.167055
    18  C   -0.152139
    19  C   -0.134918
    20  C   -0.139451
    21  C   -0.074535
    22  C   -0.088036
    23  C   -0.079491
    24  C   -0.088583
    25  C   -0.180517
    26  C   -0.193754
    27  C   -0.122753
    28  C   -0.107861
    29  C   -0.141794
    30  C   -0.110947
    31  C   -0.130074
    32  C   -0.160424
    33  C   -0.125752
    34  C   -0.079686
    35  C   -0.144553
    36  C   -0.167272
    37  C   -0.091364
    38  C   -0.092904
    39  C   -0.077338
    40  C   -0.082064
    41  C   -0.085001
    42  C   -0.078989
    43  C   -0.089412
    44  C   -0.074309
    45  C   -0.093373
    46  C   -0.087394
    47  C   -0.097081
    48  C   -0.094605
    49  H    0.271785
    50  H    0.299971
    51  H    0.075173
    52  H    0.091465
    53  H    0.084104
    54  H    0.083478
    55  H    0.121095
    56  H    0.105218
    57  H    0.084803
    58  H    0.083607
    59  H    0.098773
    60  H    0.092539
    61  H    0.098113
    62  H    0.093735
    63  H    0.165138
    64  H    0.083153
    65  H    0.105691
    66  H    0.113442
    67  H    0.118842
    68  H    0.111307
    69  H    0.097925
    70  H    0.159186
    71  H    0.094738
    72  H    0.091638
    73  H    0.093694
    74  H    0.090419
    75  H    0.094436
    76  H    0.096764
    77  H    0.094947
    78  H    0.087431
    79  H    0.095777
    80  H    0.097192
    81  H    0.095452
    82  H    0.090512
 Sum of Mulliken charges =  -0.00000

 Dipole moment (field-independent basis, Debye):
    X=              1.3553    Y=             -1.7007    Z=              1.2760  Tot=              2.5214
 Quadrupole moment (field-independent basis, Debye-Ang):
   XX=           -273.3901   YY=           -277.5136   ZZ=           -272.1840
   XY=             -6.2643   XZ=              2.7615   YZ=             -1.8420

 Summary of Natural Population Analysis:

                                       Natural Population
                Natural  -----------------------------------------------
    Atom  No    Charge         Core      Valence    Rydberg      Total
 -----------------------------------------------------------------------
      P    1    1.04619      9.99798     3.90417    0.05166    13.95381
      P    2    1.04620      9.99793     3.90328    0.05259    13.95380
      N    3   -0.95751      1.99934     5.94195    0.01623     7.95751
      N    4   -0.96959      1.99933     5.95489    0.01537     7.96959
      C    5   -0.05631      1.99881     4.03690    0.02059     6.05631
      C    6   -0.06504      1.99880     4.04487    0.02136     6.06504
      C    7   -0.05033      1.99884     4.03551    0.01599     6.05033
      C    8   -0.03405      1.99882     4.01918    0.01605     6.03405
      C    9    0.18282      1.99873     3.79507    0.02338     5.81718
      C   10    0.20370      1.99873     3.77613    0.02144     5.79630
      C   11   -0.06927      1.99885     4.05449    0.01594     6.06927
      C   12   -0.07193      1.99884     4.05748    0.01560     6.07193
      C   13   -0.23473      1.99888     4.21916    0.01668     6.23473
      C   14   -0.22536      1.99889     4.21013    0.01634     6.22536
      C   15   -0.18273      1.99892     4.16743    0.01638     6.18273
      C   16   -0.17861      1.99893     4.16336    0.01632     6.17861
      C   17   -0.21453      1.99894     4.19963    0.01596     6.21453
      C   18   -0.19920      1.99893     4.18409    0.01619     6.19920
      C   19   -0.18807      1.99893     4.17286    0.01628     6.18807
      C   20   -0.19265      1.99892     4.17753    0.01620     6.19265
      C   21   -0.20906      1.99895     4.19415    0.01596     6.20906
      C   22   -0.22063      1.99894     4.20581    0.01588     6.22063
      C   23   -0.22202      1.99895     4.20730    0.01577     6.22202
      C   24   -0.23233      1.99894     4.21755    0.01584     6.23233
      C   25   -0.36697      1.99889     4.34207    0.02601     6.36697
      C   26   -0.38295      1.99885     4.35660    0.02751     6.38295
      C   27   -0.36199      1.99887     4.33705    0.02607     6.36199
      C   28   -0.36046      1.99885     4.33657    0.02504     6.36046
      C   29   -0.20419      1.99888     4.18673    0.01858     6.20419
      C   30   -0.21109      1.99888     4.19290    0.01930     6.21109
      C   31   -0.22040      1.99888     4.20311    0.01840     6.22040
      C   32   -0.21631      1.99889     4.19932    0.01810     6.21631
      C   33   -0.21846      1.99889     4.20142    0.01816     6.21846
      C   34   -0.19830      1.99888     4.17918    0.02023     6.19830
      C   35   -0.23035      1.99890     4.21321    0.01824     6.23035
      C   36   -0.21563      1.99889     4.19621    0.02052     6.21563
      C   37   -0.21577      1.99894     4.20085    0.01598     6.21577
      C   38   -0.22103      1.99892     4.20608    0.01602     6.22103
      C   39   -0.21328      1.99894     4.19847    0.01587     6.21328
      C   40   -0.21616      1.99894     4.20130    0.01592     6.21616
      C   41   -0.21655      1.99895     4.20170    0.01591     6.21655
      C   42   -0.21208      1.99893     4.19675    0.01641     6.21208
      C   43   -0.21525      1.99893     4.20038    0.01593     6.21525
      C   44   -0.20541      1.99892     4.18975    0.01673     6.20541
      C   45   -0.22152      1.99895     4.20689    0.01568     6.22152
      C   46   -0.20964      1.99895     4.19491    0.01578     6.20964
      C   47   -0.22567      1.99895     4.21096    0.01576     6.22567
      C   48   -0.22181      1.99894     4.20693    0.01595     6.22181
      H   49    0.39450      0.00000     0.60043    0.00507     0.60550
      H   50    0.41982      0.00000     0.57610    0.00408     0.58018
      H   51    0.22981      0.00000     0.76834    0.00186     0.77019
      H   52    0.23764      0.00000     0.76033    0.00203     0.76236
      H   53    0.22635      0.00000     0.77175    0.00190     0.77365
      H   54    0.22492      0.00000     0.77322    0.00186     0.77508
      H   55    0.23930      0.00000     0.75857    0.00213     0.76070
      H   56    0.23178      0.00000     0.76594    0.00228     0.76822
      H   57    0.22357      0.00000     0.77456    0.00187     0.77643
      H   58    0.22348      0.00000     0.77465    0.00187     0.77652
      H   59    0.22687      0.00000     0.77148    0.00166     0.77313
      H   60    0.22433      0.00000     0.77399    0.00168     0.77567
      H   61    0.22619      0.00000     0.77217    0.00164     0.77381
      H   62    0.22422      0.00000     0.77412    0.00167     0.77578
      H   63    0.23842      0.00000     0.75687    0.00471     0.76158
      H   64    0.21460      0.00000     0.78198    0.00341     0.78540
      H   65    0.23590      0.00000     0.76105    0.00305     0.76410
      H   66    0.23104      0.00000     0.76652    0.00244     0.76896
      H   67    0.23440      0.00000     0.76327    0.00233     0.76560
      H   68    0.23808      0.00000     0.75976    0.00216     0.76192
      H   69    0.22626      0.00000     0.77176    0.00197     0.77374
      H   70    0.22329      0.00000     0.77055    0.00616     0.77671
      H   71    0.22540      0.00000     0.77286    0.00175     0.77460
      H   72    0.22238      0.00000     0.77584    0.00178     0.77762
      H   73    0.22262      0.00000     0.77562    0.00176     0.77738
      H   74    0.22213      0.00000     0.77612    0.00175     0.77787
      H   75    0.22336      0.00000     0.77493    0.00171     0.77664
      H   76    0.22700      0.00000     0.77130    0.00170     0.77300
      H   77    0.22374      0.00000     0.77456    0.00169     0.77626
      H   78    0.22528      0.00000     0.77289    0.00183     0.77472
      H   79    0.22233      0.00000     0.77599    0.00168     0.77767
      H   80    0.22369      0.00000     0.77463    0.00168     0.77631
      H   81    0.22253      0.00000     0.77580    0.00167     0.77747
      H   82    0.22111      0.00000     0.77720    0.00169     0.77889
 =======================================================================
   * Total *    0.00000    111.94595   229.04741    1.00664   342.00000

 Normal termination of Gaussian 16 at Sat Aug 12 03:16:27 2023.
