 Gaussian 16, Revision C.02,
 Gaussian 16:  ES64L-G16RevC.02  7-Dec-2021

 ----------------------------------------------------------------------
 #p pop=nbo pbe1pbe/def2svpp empiricaldispersion=gd3bj integral=grid=ul
 trafinegrid scf=(xqc,maxconventionalcycles=90) nosymm
 ----------------------------------------------------------------------

 ----
 Cisa
 ----
 Symbolic Z-matrix:
 Charge =  0 Multiplicity = 1

                          Input orientation:
 ---------------------------------------------------------------------
 Center     Atomic      Atomic             Coordinates (Angstroms)
 Number     Number       Type             X           Y           Z
 ---------------------------------------------------------------------
      1          6           0       -5.041000    0.065760   -0.801510
      2          6           0       -5.147550    1.469150   -0.582340
      3          6           0       -4.236700    2.124100   -1.460140
      4          6           0       -3.560950    1.126290   -2.218790
      5          6           0       -4.069010   -0.142160   -1.817030
      6          1           0       -5.599260   -0.710910   -0.278470
      7          1           0       -5.794600    1.957180    0.146820
      8          1           0       -4.074870    3.200650   -1.519340
      9          1           0       -2.800650    1.299390   -2.981630
     10          1           0       -3.773380   -1.106790   -2.224510
     11         26           0       -3.237530    0.862690   -0.201110
     12          6           0       -2.315950    2.178350    1.046840
     13          6           0       -1.346170    1.443460    0.302570
     14          6           0       -1.498170    0.043750    0.628960
     15          6           0       -2.626030   -0.044600    1.519600
     16          6           0       -3.101470    1.261760    1.794520
     17          1           0       -2.480640    3.253560    1.004460
     18          1           0       -3.045300   -0.956880    1.936600
     19          1           0       -3.953410    1.513300    2.425970
     20          6           0       -0.362520    2.014730   -0.670910
     21          1           0       -0.353310    1.340340   -1.541020
     22         15           0       -0.216420   -1.248430    0.394470
     23          6           0       -0.730010    3.406040   -1.184340
     24          1           0        0.098300    3.873800   -1.736520
     25          1           0       -1.595060    3.321970   -1.862330
     26          1           0       -1.017970    4.103510   -0.384880
     27         15           0        1.387420    1.750170   -0.036110
     28          6           0        1.440230    2.438920    1.667310
     29          6           0        1.380800    3.632690    4.213630
     30          6           0        2.209520    2.547730    3.956170
     31          6           0        2.267720    1.936770    2.695260
     32          6           0        0.623590    3.549280    1.936700
     33          6           0        0.584800    4.144040    3.191160
     34          1           0        1.361480    4.082440    5.210400
     35          1           0        2.842500    2.152190    4.756490
     36          1           0        0.011600    3.972560    1.143040
     37          1           0       -0.064950    5.005650    3.366790
     38          6           0        2.411600    2.924070   -1.005690
     39          6           0        4.076160    4.704190   -2.394130
     40          6           0        4.092120    4.685740   -1.002820
     41          6           0        3.261770    3.801840   -0.318450
     42          6           0        2.401950    2.926190   -2.422610
     43          6           0        3.240520    3.830150   -3.085300
     44          1           0        4.718400    5.395750   -2.946660
     45          1           0        4.746070    5.361100   -0.444430
     46          1           0        3.268820    3.802070    0.774480
     47          1           0        3.238550    3.841670   -4.179900
     48          6           0       -1.033730   -2.527000   -0.736420
     49          6           0       -2.478960   -2.844520   -0.346560
     50          1           0       -2.544020   -3.440180    0.574660
     51          1           0       -3.077080   -1.930810   -0.223360
     52          1           0       -2.938750   -3.444350   -1.153840
     53          6           0       -1.027110   -1.847220   -2.111870
     54          1           0       -1.570650   -0.889640   -2.071940
     55          1           0       -0.006690   -1.632230   -2.465530
     56          1           0       -1.525270   -2.496230   -2.855400
     57          6           0       -0.242960   -3.835480   -0.773890
     58          1           0        0.821050   -3.697040   -1.006590
     59          1           0       -0.314750   -4.385590    0.178050
     60          1           0       -0.670290   -4.488140   -1.556780
     61          6           0        0.011740   -1.930710    2.171520
     62          6           0       -1.069590   -2.899710    2.653730
     63          1           0       -2.083390   -2.477650    2.623410
     64          1           0       -1.067840   -3.847330    2.093430
     65          1           0       -0.857190   -3.148200    3.709710
     66          6           0        1.352870   -2.664610    2.249960
     67          1           0        1.374810   -3.559980    1.607910
     68          1           0        2.195240   -2.009690    1.975080
     69          1           0        1.510490   -3.005910    3.289010
     70          6           0        0.063520   -0.726570    3.117330
     71          1           0        0.733150    0.064490    2.750930
     72          1           0       -0.925830   -0.271670    3.272390
     73          1           0        0.440870   -1.060760    4.100710
     74          6           0        3.236700    0.808230    2.515610
     75          1           0        2.900950    0.094750    1.740940
     76          1           0        4.226860    1.192370    2.208350
     77          1           0        3.379350    0.257270    3.459180
     78          6           0        1.544400    2.009040   -3.254540
     79          1           0        1.399140    1.022660   -2.776900
     80          1           0        0.545620    2.442820   -3.439660
     81          1           0        2.006700    1.841070   -4.240910
 ---------------------------------------------------------------------

 SCF Done:  E(RPBE1PBE) =  -3265.19322787     A.U. after   18 cycles

 Alpha  occ. eigenvalues -- -256.35264 -77.18481 -77.17640 -30.12699 -25.97556
 Alpha  occ. eigenvalues --  -25.95695 -25.95608 -10.25329 -10.25004 -10.24800
 Alpha  occ. eigenvalues --  -10.24654 -10.24605 -10.24411 -10.24390 -10.24332
 Alpha  occ. eigenvalues --  -10.24259 -10.24245 -10.24214 -10.24144 -10.24135
 Alpha  occ. eigenvalues --  -10.24131 -10.24088 -10.23954 -10.23849 -10.23636
 Alpha  occ. eigenvalues --  -10.23436 -10.23196 -10.23164 -10.22785 -10.22722
 Alpha  occ. eigenvalues --  -10.22678 -10.22637 -10.22483 -10.22301 -10.21939
 Alpha  occ. eigenvalues --  -10.21631 -10.21471 -10.21406 -10.21262 -10.20736
 Alpha  occ. eigenvalues --  -10.20576  -6.59409  -6.58526  -4.73472  -4.73452
 Alpha  occ. eigenvalues --   -4.72922  -4.72600  -4.72538  -4.72040  -3.45831
 Alpha  occ. eigenvalues --   -2.24778  -2.20136  -2.19974  -0.92129  -0.90378
 Alpha  occ. eigenvalues --   -0.87870  -0.87033  -0.83407  -0.81689  -0.81340
 Alpha  occ. eigenvalues --   -0.78919  -0.78381  -0.76877  -0.75193  -0.73716
 Alpha  occ. eigenvalues --   -0.73206  -0.73149  -0.71811  -0.69986  -0.69735
 Alpha  occ. eigenvalues --   -0.69495  -0.69400  -0.68733  -0.68624  -0.66467
 Alpha  occ. eigenvalues --   -0.63805  -0.62375  -0.61535  -0.60464  -0.59047
 Alpha  occ. eigenvalues --   -0.56627  -0.56290  -0.55969  -0.55627  -0.55444
 Alpha  occ. eigenvalues --   -0.55056  -0.54064  -0.52657  -0.51431  -0.50076
 Alpha  occ. eigenvalues --   -0.49601  -0.48164  -0.47731  -0.47365  -0.46636
 Alpha  occ. eigenvalues --   -0.45697  -0.45325  -0.45163  -0.44843  -0.44637
 Alpha  occ. eigenvalues --   -0.44251  -0.43864  -0.43417  -0.43135  -0.42669
 Alpha  occ. eigenvalues --   -0.42641  -0.42363  -0.42140  -0.41867  -0.41742
 Alpha  occ. eigenvalues --   -0.41389  -0.41084  -0.40428  -0.40035  -0.39753
 Alpha  occ. eigenvalues --   -0.39714  -0.39553  -0.39350  -0.39105  -0.38783
 Alpha  occ. eigenvalues --   -0.38454  -0.38184  -0.37859  -0.37337  -0.37260
 Alpha  occ. eigenvalues --   -0.36906  -0.36693  -0.36386  -0.36246  -0.35356
 Alpha  occ. eigenvalues --   -0.35008  -0.34933  -0.34262  -0.33638  -0.33401
 Alpha  occ. eigenvalues --   -0.32996  -0.32471  -0.32372  -0.29460  -0.28484
 Alpha  occ. eigenvalues --   -0.27890  -0.27783  -0.26402  -0.26090  -0.25812
 Alpha  occ. eigenvalues --   -0.25428  -0.25129  -0.24525  -0.22931  -0.21877
 Alpha  occ. eigenvalues --   -0.21665  -0.18273
 Alpha virt. eigenvalues --   -0.02110  -0.00882  -0.00670  -0.00196   0.00205
 Alpha virt. eigenvalues --    0.00703   0.03338   0.04010   0.05893   0.06001
 Alpha virt. eigenvalues --    0.06531   0.06610   0.06728   0.07042   0.07402

 Mulliken charges:
               1
     1  C   -0.083265
     2  C   -0.075959
     3  C   -0.077704
     4  C   -0.110783
     5  C   -0.121151
     6  H    0.119501
     7  H    0.118910
     8  H    0.118114
     9  H    0.114132
    10  H    0.121711
    11  Fe  -0.226692
    12  C   -0.054716
    13  C   -0.014486
    14  C   -0.125013
    15  C   -0.165954
    16  C   -0.027027
    17  H    0.097343
    18  H    0.120987
    19  H    0.109033
    20  C   -0.361774
    21  H    0.157922
    22  P    0.342444
    23  C   -0.328480
    24  H    0.173356
    25  H    0.139156
    26  H    0.152743
    27  P    0.334651
    28  C   -0.199475
    29  C   -0.080359
    30  C   -0.124849
    31  C   -0.081945
    32  C   -0.072768
    33  C   -0.081704
    34  H    0.094203
    35  H    0.080295
    36  H    0.078088
    37  H    0.086486
    38  C   -0.119050
    39  C   -0.089754
    40  C   -0.079836
    41  C   -0.139830
    42  C   -0.063198
    43  C   -0.138350
    44  H    0.090054
    45  H    0.089165
    46  H    0.124682
    47  H    0.077757
    48  C   -0.428735
    49  C   -0.321751
    50  H    0.122037
    51  H    0.195079
    52  H    0.110062
    53  C   -0.327735
    54  H    0.186421
    55  H    0.141763
    56  H    0.121793
    57  C   -0.276656
    58  H    0.134809
    59  H    0.137474
    60  H    0.118332
    61  C   -0.438990
    62  C   -0.280895
    63  H    0.133297
    64  H    0.138885
    65  H    0.111607
    66  C   -0.278714
    67  H    0.126773
    68  H    0.141383
    69  H    0.116498
    70  C   -0.318277
    71  H    0.199858
    72  H    0.152841
    73  H    0.114549
    74  C   -0.327824
    75  H    0.197092
    76  H    0.145951
    77  H    0.132711
    78  C   -0.330611
    79  H    0.175397
    80  H    0.144161
    81  H    0.134799
 Sum of Mulliken charges =  -0.00000

 Dipole moment (field-independent basis, Debye):
    X=             -1.6838    Y=              0.5588    Z=              0.9067  Tot=              1.9924
 Quadrupole moment (field-independent basis, Debye-Ang):
   XX=           -246.7140   YY=           -239.5684   ZZ=           -237.2847
   XY=             -2.0685   XZ=             -2.4823   YZ=              1.4576

 Summary of Natural Population Analysis:

                                       Natural Population
                Natural  -----------------------------------------------
    Atom  No    Charge         Core      Valence    Rydberg      Total
 -----------------------------------------------------------------------
      C    1   -0.24769      1.99868     4.22599    0.02301     6.24769
      C    2   -0.23461      1.99865     4.21334    0.02263     6.23461
      C    3   -0.23760      1.99866     4.21680    0.02215     6.23760
      C    4   -0.25891      1.99870     4.23733    0.02288     6.25891
      C    5   -0.24995      1.99873     4.22805    0.02317     6.24995
      H    6    0.24832      0.00000     0.75050    0.00118     0.75168
      H    7    0.24642      0.00000     0.75239    0.00118     0.75358
      H    8    0.24624      0.00000     0.75253    0.00123     0.75376
      H    9    0.24573      0.00000     0.75296    0.00132     0.75427
      H   10    0.24847      0.00000     0.74973    0.00180     0.75153
     Fe   11    0.03278     17.99276     7.95823    0.01623    25.96722
      C   12   -0.21809      1.99861     4.19764    0.02184     6.21809
      C   13   -0.05458      1.99859     4.02444    0.03156     6.05458
      C   14   -0.38904      1.99866     4.35676    0.03362     6.38904
      C   15   -0.23862      1.99867     4.21466    0.02529     6.23862
      C   16   -0.21685      1.99863     4.19492    0.02330     6.21685
      H   17    0.24844      0.00000     0.75027    0.00130     0.75156
      H   18    0.24738      0.00000     0.75092    0.00170     0.75262
      H   19    0.24711      0.00000     0.75164    0.00125     0.75289
      C   20   -0.52252      1.99900     4.50185    0.02167     6.52252
      H   21    0.27528      0.00000     0.72144    0.00328     0.72472
      P   22    0.80596      9.99810     4.15569    0.04025    14.19404
      C   23   -0.62086      1.99926     4.60909    0.01250     6.62086
      H   24    0.23492      0.00000     0.76333    0.00176     0.76508
      H   25    0.21737      0.00000     0.78000    0.00263     0.78263
      H   26    0.20739      0.00000     0.79125    0.00136     0.79261
      P   27    0.82181      9.99817     4.14003    0.03998    14.17819
      C   28   -0.34539      1.99883     4.32078    0.02579     6.34539
      C   29   -0.20371      1.99894     4.18895    0.01582     6.20371
      C   30   -0.21654      1.99887     4.20169    0.01598     6.21654
      C   31   -0.03027      1.99880     4.01321    0.01826     6.03027
      C   32   -0.19119      1.99890     4.17284    0.01944     6.19119
      C   33   -0.22433      1.99891     4.20955    0.01586     6.22433
      H   34    0.22322      0.00000     0.77507    0.00171     0.77678
      H   35    0.22144      0.00000     0.77673    0.00183     0.77856
      H   36    0.21820      0.00000     0.77862    0.00318     0.78180
      H   37    0.22163      0.00000     0.77659    0.00179     0.77837
      C   38   -0.33214      1.99886     4.30863    0.02465     6.33214
      C   39   -0.22323      1.99894     4.20824    0.01604     6.22323
      C   40   -0.21840      1.99893     4.20356    0.01590     6.21840
      C   41   -0.21360      1.99889     4.19675    0.01796     6.21360
      C   42   -0.04786      1.99884     4.03142    0.01761     6.04786
      C   43   -0.21261      1.99889     4.19790    0.01582     6.21261
      H   44    0.22169      0.00000     0.77661    0.00171     0.77831
      H   45    0.22214      0.00000     0.77612    0.00173     0.77786
      H   46    0.23109      0.00000     0.76588    0.00303     0.76891
      H   47    0.21907      0.00000     0.77909    0.00184     0.78093
      C   48   -0.33032      1.99893     4.30983    0.02156     6.33032
      C   49   -0.63308      1.99917     4.61859    0.01533     6.63308
      H   50    0.21779      0.00000     0.78079    0.00142     0.78221
      H   51    0.22164      0.00000     0.77357    0.00479     0.77836
      H   52    0.20821      0.00000     0.78929    0.00249     0.79179
      C   53   -0.63489      1.99919     4.62043    0.01527     6.63489
      H   54    0.21875      0.00000     0.77688    0.00437     0.78125
      H   55    0.22703      0.00000     0.77123    0.00174     0.77297
      H   56    0.21574      0.00000     0.78218    0.00209     0.78426
      C   57   -0.62612      1.99921     4.61232    0.01459     6.62612
      H   58    0.22343      0.00000     0.77466    0.00191     0.77657
      H   59    0.21400      0.00000     0.78463    0.00137     0.78600
      H   60    0.21760      0.00000     0.78014    0.00226     0.78240
      C   61   -0.32466      1.99893     4.30465    0.02108     6.32466
      C   62   -0.62430      1.99919     4.60998    0.01513     6.62430
      H   63    0.21181      0.00000     0.78676    0.00143     0.78819
      H   64    0.21350      0.00000     0.78504    0.00147     0.78650
      H   65    0.21502      0.00000     0.78244    0.00253     0.78498
      C   66   -0.62148      1.99920     4.60770    0.01458     6.62148
      H   67    0.21710      0.00000     0.78146    0.00144     0.78290
      H   68    0.22416      0.00000     0.77420    0.00164     0.77584
      H   69    0.21404      0.00000     0.78389    0.00207     0.78596
      C   70   -0.62472      1.99917     4.60996    0.01558     6.62472
      H   71    0.22211      0.00000     0.77211    0.00578     0.77789
      H   72    0.22761      0.00000     0.77053    0.00186     0.77239
      H   73    0.21537      0.00000     0.78256    0.00207     0.78463
      C   74   -0.64681      1.99922     4.63848    0.00911     6.64681
      H   75    0.24081      0.00000     0.75774    0.00145     0.75919
      H   76    0.23592      0.00000     0.76253    0.00155     0.76408
      H   77    0.22391      0.00000     0.77463    0.00146     0.77609
      C   78   -0.64749      1.99923     4.63745    0.01081     6.64749
      H   79    0.23086      0.00000     0.76717    0.00198     0.76914
      H   80    0.22470      0.00000     0.77336    0.00194     0.77530
      H   81    0.22926      0.00000     0.76926    0.00149     0.77074
 =======================================================================
   * Total *    0.00000    105.95191   197.20645    0.84164   304.00000

 Normal termination of Gaussian 16 at Fri Sep 29 19:33:52 2023.
