 Gaussian 16, Revision C.02,
 Gaussian 16:  ES64L-G16RevC.02  7-Dec-2021

 ----------------------------------------------------------------------
 #p pop=nbo pbe1pbe/def2svpp empiricaldispersion=gd3bj integral=grid=ul
 trafinegrid scf=(xqc,maxconventionalcycles=90) nosymm
 ----------------------------------------------------------------------

 ----
 Cisa
 ----
 Symbolic Z-matrix:
 Charge =  0 Multiplicity = 1

                          Input orientation:
 ---------------------------------------------------------------------
 Center     Atomic      Atomic             Coordinates (Angstroms)
 Number     Number       Type             X           Y           Z
 ---------------------------------------------------------------------
      1          6           0       -3.543450   -0.939530   -1.287740
      2          6           0       -4.239650   -1.485060   -0.169590
      3          6           0       -5.100390   -0.476590    0.349040
      4          6           0       -4.936010    0.693790   -0.445180
      5          6           0       -3.978210    0.403370   -1.459260
      6          1           0       -2.801300   -1.455050   -1.896860
      7          1           0       -4.128760   -2.492560    0.227950
      8          1           0       -5.748310   -0.572770    1.220540
      9          1           0       -5.438520    1.648940   -0.290630
     10          1           0       -3.635370    1.089970   -2.233120
     11         26           0       -3.156570    0.154400    0.411190
     12          6           0       -2.377360    1.855920    1.219360
     13          6           0       -1.357520    1.128240    0.530760
     14          6           0       -1.276840   -0.169860    1.146310
     15          6           0       -2.251540   -0.225690    2.196460
     16          6           0       -2.918540    1.027100    2.242520
     17          1           0       -2.722890    2.860570    0.980370
     18          1           0       -2.439600   -1.084130    2.839860
     19          1           0       -3.735650    1.293120    2.912940
     20          6           0       -0.528910    1.619880   -0.624860
     21          1           0       -0.507350    0.808560   -1.374390
     22         15           0        0.045740   -1.342020    0.798180
     23          6           0       -1.198960    2.829310   -1.276560
     24          1           0       -0.784680    3.054960   -2.267670
     25          1           0       -2.266460    2.596100   -1.415500
     26          1           0       -1.135840    3.738520   -0.662290
     27         15           0        1.318390    1.720630   -0.163330
     28          6           0        2.127830    2.628380   -1.631370
     29          6           0        1.463280    2.740540    1.436330
     30          6           0        0.515930    3.939630    1.493170
     31          1           0       -0.538180    3.626370    1.492150
     32          1           0        0.692810    4.483850    2.439250
     33          1           0        0.678560    4.652120    0.670260
     34          6           0        2.901170    3.231050    1.624140
     35          1           0        2.988410    3.672010    2.633540
     36          1           0        3.632860    2.409150    1.561370
     37          1           0        3.180030    4.015910    0.904630
     38          6           0        1.142920    1.793870    2.601170
     39          1           0        1.293840    2.334550    3.553870
     40          1           0        0.100700    1.442070    2.576950
     41          1           0        1.812830    0.912920    2.595560
     42          6           0        1.700330    1.844500   -2.881680
     43          1           0        0.631750    1.953080   -3.121590
     44          1           0        2.270490    2.211780   -3.754000
     45          1           0        1.916030    0.765860   -2.768840
     46          6           0        3.658540    2.558760   -1.558120
     47          1           0        4.072220    3.055910   -0.670610
     48          1           0        4.038380    1.532330   -1.589260
     49          1           0        4.065910    3.082450   -2.441780
     50          6           0        1.769650    4.113940   -1.759640
     51          1           0        2.184280    4.491660   -2.712310
     52          1           0        0.694130    4.324550   -1.765350
     53          1           0        2.229560    4.708220   -0.953850
     54          6           0       -0.516310   -2.422620   -0.550760
     55          6           0       -1.525220   -3.372970   -0.361630
     56          6           0        0.008230   -2.222570   -1.829420
     57          6           0       -2.010440   -4.125630   -1.429490
     58          1           0       -1.955020   -3.522720    0.633060
     59          6           0       -0.458380   -2.948800   -2.929140
     60          1           0        0.798220   -1.474460   -1.970370
     61          6           0       -1.463820   -3.904850   -2.708670
     62          6           0        0.144690   -2.378550    2.293110
     63          6           0        0.356700   -3.757810    2.219560
     64          6           0        0.219630   -1.747280    3.543340
     65          6           0        0.614660   -4.518690    3.364990
     66          1           0        0.331020   -4.269030    1.253180
     67          6           0        0.472110   -2.470820    4.707180
     68          1           0        0.089390   -0.664210    3.619320
     69          6           0        0.658720   -3.862080    4.604150
     70          8           0       -1.983720   -4.597920   -3.755100
     71          8           0        0.956220   -4.558590    5.732900
     72          6           0        0.862020   -5.995620    3.272720
     73          1           0        1.583520   -6.319330    4.039880
     74          1           0       -0.067020   -6.574150    3.429310
     75          1           0        1.253130   -6.269250    2.279420
     76          6           0       -0.125840   -5.203420    6.368480
     77          1           0       -0.575830   -5.979780    5.722420
     78          1           0        0.275970   -5.680250    7.274760
     79          1           0       -0.912250   -4.481150    6.657520
     80          6           0        0.573440   -1.800130    6.044850
     81          1           0       -0.259400   -2.092140    6.709020
     82          1           0        1.504350   -2.089660    6.560270
     83          1           0        0.550650   -0.703760    5.940320
     84          6           0       -3.126170   -5.112510   -1.257280
     85          1           0       -3.985300   -4.844780   -1.896070
     86          1           0       -2.820940   -6.132250   -1.549050
     87          1           0       -3.464950   -5.147510   -0.209600
     88          6           0       -1.269850   -5.745690   -4.159880
     89          1           0       -1.845880   -6.206590   -4.975810
     90          1           0       -0.260250   -5.490490   -4.531460
     91          1           0       -1.171220   -6.471450   -3.330890
     92          6           0        0.078730   -2.701430   -4.308300
     93          1           0        0.907220   -3.391210   -4.553480
     94          1           0       -0.706950   -2.849290   -5.066460
     95          1           0        0.470120   -1.674980   -4.399880
 ---------------------------------------------------------------------

 SCF Done:  E(RPBE1PBE) =  -3572.29358676     A.U. after   19 cycles

 Alpha  occ. eigenvalues -- -256.34507 -77.18184 -77.16880 -30.11966 -25.96822
 Alpha  occ. eigenvalues --  -25.94916 -25.94913 -19.23115 -19.22153 -10.28784
 Alpha  occ. eigenvalues --  -10.28226 -10.27534 -10.27297 -10.24889 -10.24737
 Alpha  occ. eigenvalues --  -10.24531 -10.24401 -10.24391 -10.24313 -10.23916
 Alpha  occ. eigenvalues --  -10.23875 -10.23767 -10.23728 -10.23666 -10.23653
 Alpha  occ. eigenvalues --  -10.23598 -10.23507 -10.23494 -10.23471 -10.23425
 Alpha  occ. eigenvalues --  -10.23359 -10.23358 -10.23336 -10.23146 -10.22795
 Alpha  occ. eigenvalues --  -10.22684 -10.22328 -10.22305 -10.22065 -10.21902
 Alpha  occ. eigenvalues --  -10.21877 -10.21643 -10.21321 -10.21183 -10.21032
 Alpha  occ. eigenvalues --  -10.20871 -10.20512  -6.59215  -6.57798  -4.73271
 Alpha  occ. eigenvalues --   -4.73263  -4.72728  -4.71861  -4.71828  -4.71282
 Alpha  occ. eigenvalues --   -3.45145  -2.24136  -2.19362  -2.19354  -1.08405
 Alpha  occ. eigenvalues --   -1.07400  -0.91686  -0.89790  -0.87951  -0.86839
 Alpha  occ. eigenvalues --   -0.83500  -0.81519  -0.80485  -0.79783  -0.79516
 Alpha  occ. eigenvalues --   -0.79137  -0.77024  -0.73782  -0.73237  -0.72471
 Alpha  occ. eigenvalues --   -0.72399  -0.72259  -0.71389  -0.69889  -0.69665
 Alpha  occ. eigenvalues --   -0.69365  -0.69239  -0.68656  -0.68475  -0.68385
 Alpha  occ. eigenvalues --   -0.67775  -0.65536  -0.63649  -0.60461  -0.59900
 Alpha  occ. eigenvalues --   -0.59402  -0.58803  -0.57142  -0.55929  -0.55248
 Alpha  occ. eigenvalues --   -0.55221  -0.54939  -0.54279  -0.53840  -0.53023
 Alpha  occ. eigenvalues --   -0.52697  -0.51560  -0.51162  -0.51003  -0.50119
 Alpha  occ. eigenvalues --   -0.48790  -0.47937  -0.47390  -0.46482  -0.46382
 Alpha  occ. eigenvalues --   -0.45512  -0.45428  -0.45016  -0.44733  -0.44312
 Alpha  occ. eigenvalues --   -0.43845  -0.43757  -0.43488  -0.43263  -0.42954
 Alpha  occ. eigenvalues --   -0.42820  -0.42755  -0.42450  -0.42400  -0.41992
 Alpha  occ. eigenvalues --   -0.41917  -0.41772  -0.41488  -0.41425  -0.41085
 Alpha  occ. eigenvalues --   -0.40872  -0.40796  -0.40320  -0.39925  -0.39421
 Alpha  occ. eigenvalues --   -0.39261  -0.38964  -0.38881  -0.38839  -0.38583
 Alpha  occ. eigenvalues --   -0.38244  -0.37920  -0.37836  -0.37654  -0.37320
 Alpha  occ. eigenvalues --   -0.36986  -0.36857  -0.36461  -0.36384  -0.36181
 Alpha  occ. eigenvalues --   -0.35754  -0.35638  -0.34967  -0.34655  -0.34138
 Alpha  occ. eigenvalues --   -0.33812  -0.33197  -0.33034  -0.32776  -0.30989
 Alpha  occ. eigenvalues --   -0.29142  -0.28567  -0.28256  -0.28072  -0.27541
 Alpha  occ. eigenvalues --   -0.26976  -0.25758  -0.25522  -0.25129  -0.24699
 Alpha  occ. eigenvalues --   -0.24464  -0.24114  -0.21824  -0.21245  -0.20917
 Alpha  occ. eigenvalues --   -0.17340
 Alpha virt. eigenvalues --   -0.01657  -0.00485  -0.00108   0.00390   0.00479
 Alpha virt. eigenvalues --    0.00913   0.03795   0.04626   0.05940   0.06170
 Alpha virt. eigenvalues --    0.06612   0.06807   0.06998   0.07468   0.07621

 Mulliken charges:
               1
     1  C   -0.112027
     2  C   -0.091773
     3  C   -0.067702
     4  C   -0.083647
     5  C   -0.093746
     6  H    0.150486
     7  H    0.108490
     8  H    0.113764
     9  H    0.112847
    10  H    0.111785
    11  Fe  -0.217854
    12  C   -0.102801
    13  C   -0.046459
    14  C   -0.167752
    15  C   -0.091195
    16  C   -0.040535
    17  H    0.105829
    18  H    0.120493
    19  H    0.107277
    20  C   -0.323946
    21  H    0.157733
    22  P    0.404633
    23  C   -0.339391
    24  H    0.150789
    25  H    0.150275
    26  H    0.137019
    27  P    0.347768
    28  C   -0.418757
    29  C   -0.425965
    30  C   -0.293779
    31  H    0.154439
    32  H    0.107637
    33  H    0.131115
    34  C   -0.290475
    35  H    0.117167
    36  H    0.141235
    37  H    0.143503
    38  C   -0.345108
    39  H    0.113479
    40  H    0.212118
    41  H    0.154893
    42  C   -0.324077
    43  H    0.142549
    44  H    0.122156
    45  H    0.158657
    46  C   -0.270852
    47  H    0.129381
    48  H    0.128578
    49  H    0.114505
    50  C   -0.287025
    51  H    0.108245
    52  H    0.133100
    53  H    0.139007
    54  C   -0.082925
    55  C   -0.228225
    56  C   -0.214735
    57  C   -0.017707
    58  H    0.102368
    59  C   -0.020727
    60  H    0.103595
    61  C    0.093204
    62  C   -0.075678
    63  C   -0.247383
    64  C   -0.249673
    65  C   -0.004971
    66  H    0.094781
    67  C   -0.014072
    68  H    0.107068
    69  C    0.084988
    70  O   -0.359898
    71  O   -0.362176
    72  C   -0.300263
    73  H    0.145839
    74  H    0.139832
    75  H    0.131352
    76  C   -0.122400
    77  H    0.115805
    78  H    0.137606
    79  H    0.116391
    80  C   -0.285976
    81  H    0.132460
    82  H    0.146174
    83  H    0.126229
    84  C   -0.281403
    85  H    0.150279
    86  H    0.135558
    87  H    0.125997
    88  C   -0.127685
    89  H    0.141387
    90  H    0.120500
    91  H    0.120526
    92  C   -0.299344
    93  H    0.146733
    94  H    0.146475
    95  H    0.134009
 Sum of Mulliken charges =  -0.00000

 Dipole moment (field-independent basis, Debye):
    X=             -1.8365    Y=             -1.2161    Z=             -0.5268  Tot=              2.2648
 Quadrupole moment (field-independent basis, Debye-Ang):
   XX=           -289.9527   YY=           -257.0496   ZZ=           -267.8200
   XY=              4.6400   XZ=            -15.9295   YZ=              1.9271

 Summary of Natural Population Analysis:

                                       Natural Population
                Natural  -----------------------------------------------
    Atom  No    Charge         Core      Valence    Rydberg      Total
 -----------------------------------------------------------------------
      C    1   -0.23718      1.99870     4.21489    0.02358     6.23718
      C    2   -0.24364      1.99868     4.22218    0.02277     6.24364
      C    3   -0.23763      1.99866     4.21616    0.02281     6.23763
      C    4   -0.24139      1.99866     4.21978    0.02295     6.24139
      C    5   -0.24676      1.99869     4.22458    0.02349     6.24676
      H    6    0.24991      0.00000     0.74636    0.00373     0.75009
      H    7    0.24243      0.00000     0.75578    0.00179     0.75757
      H    8    0.24511      0.00000     0.75375    0.00115     0.75489
      H    9    0.24470      0.00000     0.75413    0.00117     0.75530
      H   10    0.24193      0.00000     0.75660    0.00147     0.75807
     Fe   11    0.02866     17.99295     7.96065    0.01774    25.97134
      C   12   -0.24547      1.99864     4.22509    0.02173     6.24547
      C   13   -0.06031      1.99862     4.03117    0.03051     6.06031
      C   14   -0.39078      1.99857     4.36178    0.03044     6.39078
      C   15   -0.22596      1.99865     4.20156    0.02575     6.22596
      C   16   -0.22749      1.99866     4.20525    0.02358     6.22749
      H   17    0.25360      0.00000     0.74519    0.00121     0.74640
      H   18    0.25935      0.00000     0.73931    0.00133     0.74065
      H   19    0.24768      0.00000     0.75114    0.00118     0.75232
      C   20   -0.52093      1.99900     4.49900    0.02293     6.52093
      H   21    0.26898      0.00000     0.72730    0.00372     0.73102
      P   22    0.88915      9.99789     4.06701    0.04595    14.11085
      C   23   -0.63024      1.99926     4.61794    0.01304     6.63024
      H   24    0.21882      0.00000     0.77988    0.00131     0.78118
      H   25    0.21968      0.00000     0.77733    0.00299     0.78032
      H   26    0.21938      0.00000     0.77918    0.00143     0.78062
      P   27    0.77066      9.99831     4.19271    0.03831    14.22934
      C   28   -0.33826      1.99895     4.31885    0.02047     6.33826
      C   29   -0.33260      1.99893     4.31272    0.02095     6.33260
      C   30   -0.62873      1.99918     4.61448    0.01507     6.62873
      H   31    0.21803      0.00000     0.77986    0.00211     0.78197
      H   32    0.21080      0.00000     0.78652    0.00268     0.78920
      H   33    0.21700      0.00000     0.78157    0.00143     0.78300
      C   34   -0.63005      1.99922     4.61589    0.01495     6.63005
      H   35    0.21847      0.00000     0.77922    0.00231     0.78153
      H   36    0.22649      0.00000     0.77148    0.00204     0.77351
      H   37    0.21284      0.00000     0.78567    0.00149     0.78716
      C   38   -0.63414      1.99920     4.61958    0.01535     6.63414
      H   39    0.21323      0.00000     0.78463    0.00214     0.78677
      H   40    0.22243      0.00000     0.77343    0.00414     0.77757
      H   41    0.23361      0.00000     0.76466    0.00173     0.76639
      C   42   -0.63173      1.99922     4.61804    0.01447     6.63173
      H   43    0.21415      0.00000     0.78432    0.00154     0.78585
      H   44    0.22006      0.00000     0.77774    0.00221     0.77994
      H   45    0.22440      0.00000     0.77362    0.00197     0.77560
      C   46   -0.62039      1.99921     4.60592    0.01526     6.62039
      H   47    0.21984      0.00000     0.77882    0.00134     0.78016
      H   48    0.22362      0.00000     0.77449    0.00189     0.77638
      H   49    0.21281      0.00000     0.78509    0.00210     0.78719
      C   50   -0.62919      1.99920     4.61513    0.01486     6.62919
      H   51    0.21033      0.00000     0.78701    0.00266     0.78967
      H   52    0.22011      0.00000     0.77851    0.00138     0.77989
      H   53    0.21518      0.00000     0.78343    0.00139     0.78482
      C   54   -0.34506      1.99885     4.31941    0.02680     6.34506
      C   55   -0.21129      1.99887     4.19261    0.01981     6.21129
      C   56   -0.19899      1.99884     4.18248    0.01767     6.19899
      C   57   -0.07002      1.99881     4.05464    0.01657     6.07002
      H   58    0.23506      0.00000     0.76285    0.00209     0.76494
      C   59   -0.07637      1.99881     4.06184    0.01572     6.07637
      H   60    0.23437      0.00000     0.76347    0.00217     0.76563
      C   61    0.33485      1.99849     3.64105    0.02561     5.66515
      C   62   -0.34139      1.99891     4.31798    0.02450     6.34139
      C   63   -0.22092      1.99887     4.20480    0.01725     6.22092
      C   64   -0.21711      1.99887     4.20075    0.01749     6.21711
      C   65   -0.06610      1.99883     4.05120    0.01607     6.06610
      H   66    0.22910      0.00000     0.76877    0.00213     0.77090
      C   67   -0.06205      1.99882     4.04689    0.01634     6.06205
      H   68    0.22752      0.00000     0.76952    0.00296     0.77248
      C   69    0.31851      1.99849     3.65726    0.02575     5.68149
      O   70   -0.58634      1.99964     6.57645    0.01026     8.58634
      O   71   -0.58841      1.99964     6.57853    0.01024     8.58841
      C   72   -0.63879      1.99925     4.62965    0.00990     6.63879
      H   73    0.23241      0.00000     0.76460    0.00300     0.76759
      H   74    0.22198      0.00000     0.77648    0.00154     0.77802
      H   75    0.22470      0.00000     0.77394    0.00136     0.77530
      C   76   -0.22312      1.99929     4.20987    0.01396     6.22312
      H   77    0.17313      0.00000     0.82440    0.00248     0.82687
      H   78    0.19758      0.00000     0.80132    0.00110     0.80242
      H   79    0.17406      0.00000     0.82361    0.00233     0.82594
      C   80   -0.63349      1.99925     4.62360    0.01065     6.63349
      H   81    0.22167      0.00000     0.77684    0.00149     0.77833
      H   82    0.23446      0.00000     0.76320    0.00233     0.76554
      H   83    0.22098      0.00000     0.77773    0.00130     0.77902
      C   84   -0.63486      1.99925     4.62462    0.01099     6.63486
      H   85    0.23723      0.00000     0.76060    0.00217     0.76277
      H   86    0.22501      0.00000     0.77349    0.00150     0.77499
      H   87    0.21940      0.00000     0.77935    0.00125     0.78060
      C   88   -0.22473      1.99929     4.21137    0.01407     6.22473
      H   89    0.20000      0.00000     0.79900    0.00101     0.80000
      H   90    0.17537      0.00000     0.82222    0.00241     0.82463
      H   91    0.17586      0.00000     0.82191    0.00224     0.82414
      C   92   -0.64009      1.99925     4.63074    0.01010     6.64009
      H   93    0.22607      0.00000     0.77242    0.00152     0.77393
      H   94    0.23280      0.00000     0.76429    0.00290     0.76720
      H   95    0.22645      0.00000     0.77221    0.00135     0.77355
 =======================================================================
   * Total *   -0.00000    117.94735   233.10431    0.94834   352.00000

 Normal termination of Gaussian 16 at Fri Sep 29 19:34:46 2023.
