 Gaussian 16, Revision C.02,
 Gaussian 16:  ES64L-G16RevC.02  7-Dec-2021

 ----------------------------------------------------------------------
 #p pop=nbo pbe1pbe/def2svpp empiricaldispersion=gd3bj integral=grid=ul
 trafinegrid scf=(xqc,maxconventionalcycles=90) nosymm
 ----------------------------------------------------------------------

 ----
 Cisa
 ----
 Symbolic Z-matrix:
 Charge =  0 Multiplicity = 1

                          Input orientation:
 ---------------------------------------------------------------------
 Center     Atomic      Atomic             Coordinates (Angstroms)
 Number     Number       Type             X           Y           Z
 ---------------------------------------------------------------------
      1         15           0        0.188900    1.086310   -0.727270
      2          6           0        1.089890    0.535950   -2.203180
      3          6           0        0.381850   -0.167190   -3.180980
      4          6           0        1.030270   -0.726170   -4.286210
      5          6           0        2.418700   -0.543360   -4.396940
      6          6           0        3.154830    0.165590   -3.427340
      7          6           0        2.472690    0.698530   -2.335060
      8          6           0        0.835450    2.719850   -0.262990
      9          6           0        0.547740    3.213870    1.017330
     10          6           0        0.828910    4.534420    1.361990
     11          6           0        1.407640    5.371590    0.389440
     12          6           0        1.679510    4.912600   -0.908880
     13          6           0        1.382670    3.580350   -1.217690
     14         15           0       -2.560830   -0.665460   -0.057970
     15          6           0       -1.147520   -1.873930    0.135980
     16          6           0       -1.575940   -3.234380    0.665550
     17          6           0        0.625080   -0.006220    0.645040
     18          6           0       -0.094810   -1.212880    0.976180
     19          6           0        0.369580   -1.647840    2.252860
     20          6           0        1.379820   -0.750990    2.698620
     21          6           0        1.549200    0.255100    1.710680
     22          1           0       -0.703720   -0.287590   -3.071410
     23          1           0        3.034930    1.235160   -1.564940
     24          1           0        0.081340    2.562860    1.763650
     25          1           0        1.572440    3.223390   -2.234390
     26          1           0       -0.755170   -1.986490   -0.890890
     27          1           0       -0.704140   -3.908570    0.713680
     28          1           0       -2.334220   -3.697130    0.013970
     29          1           0       -1.995890   -3.155140    1.680830
     30          1           0        2.252780    1.085860    1.747720
     31          6           0       -3.785500    0.157640    4.284510
     32          6           0       -4.197870   -1.053360    3.710340
     33          6           0       -3.859950   -1.307090    2.379260
     34          6           0       -3.135870   -0.363810    1.637270
     35          6           0       -2.753470    0.841830    2.231610
     36          6           0       -3.064130    1.114960    3.568290
     37          1           0       -4.179280   -2.245220    1.915860
     38          1           0       -2.206050    1.580760    1.633510
     39          6           0       -5.807610   -2.691060   -2.587120
     40          6           0       -6.201770   -1.972320   -1.455300
     41          6           0       -5.208760   -1.411390   -0.641440
     42          6           0       -3.856690   -1.567640   -0.956280
     43          6           0       -3.491370   -2.281250   -2.105980
     44          6           0       -4.459570   -2.857240   -2.930670
     45          1           0       -5.502770   -0.842920    0.246180
     46          1           0       -2.435370   -2.387670   -2.377370
     47         26           0        1.903280   -1.582000    0.902980
     48          6           0        2.955020   -3.317290    1.154310
     49          6           0        3.844020   -2.207640    1.073190
     50          6           0        3.639470   -1.570820   -0.183640
     51          6           0        2.624830   -2.288850   -0.883160
     52          6           0        2.205480   -3.368320   -0.056910
     53          1           0        2.849100   -3.992740    2.003520
     54          1           0        4.162070   -0.684850   -0.540780
     55          1           0        2.228690   -2.042960   -1.868530
     56          1           0        1.434420   -4.098900   -0.302500
     57          1           0       -4.045000    0.361740    5.329280
     58          1           0       -6.576660   -3.136070   -3.227810
     59          6           0       -4.990060   -2.045140    4.513490
     60          1           0       -5.968390   -1.625870    4.808810
     61          1           0       -5.177790   -2.969550    3.944160
     62          1           0       -4.461640   -2.319110    5.443210
     63          6           0       -2.604670    2.393190    4.210020
     64          1           0       -3.212180    2.646770    5.093650
     65          1           0       -1.554240    2.306190    4.545110
     66          1           0       -2.654630    3.239210    3.503730
     67          6           0       -7.655580   -1.774640   -1.134310
     68          1           0       -7.814180   -1.621390   -0.054390
     69          1           0       -8.054640   -0.885010   -1.655830
     70          1           0       -8.260950   -2.638930   -1.452800
     71          6           0       -4.066580   -3.652770   -4.142400
     72          1           0       -4.746030   -3.460390   -4.989320
     73          1           0       -3.038610   -3.417000   -4.464950
     74          1           0       -4.107720   -4.737100   -3.931750
     75          1           0        1.954370   -0.844730    3.620080
     76          1           0        0.043490   -2.544030    2.778170
     77          1           0        4.537040   -1.884870    1.850400
     78          8           0        1.635190    6.673170    0.711040
     79          8           0        3.098090   -1.114580   -5.425950
     80          6           0        0.274710   -1.518880   -5.312460
     81          1           0       -0.031680   -0.890880   -6.169080
     82          1           0        0.896580   -2.336720   -5.710540
     83          1           0       -0.644030   -1.949470   -4.879940
     84          6           0        4.644000    0.280120   -3.560690
     85          1           0        5.108770   -0.719620   -3.608320
     86          1           0        4.934180    0.808620   -4.485200
     87          1           0        5.076110    0.827900   -2.708170
     88          6           0        3.121100   -0.389990   -6.636280
     89          1           0        3.562490    0.614600   -6.496140
     90          1           0        3.745180   -0.963150   -7.337760
     91          1           0        2.108320   -0.276610   -7.065300
     92          6           0        2.946320    6.988830    1.125070
     93          1           0        3.683480    6.808590    0.320820
     94          1           0        2.950290    8.058650    1.381480
     95          1           0        3.240620    6.401850    2.015360
     96          6           0        2.250310    5.838380   -1.942270
     97          1           0        1.885900    6.866840   -1.789530
     98          1           0        3.354410    5.869630   -1.893860
     99          1           0        1.977560    5.511510   -2.958710
    100          6           0        0.505650    5.078600    2.721850
    101          1           0       -0.051480    6.026930    2.643720
    102          1           0       -0.094070    4.359210    3.302330
    103          1           0        1.421380    5.296210    3.300150
 ---------------------------------------------------------------------

 SCF Done:  E(RPBE1PBE) =  -3876.62230610     A.U. after   19 cycles

 Alpha  occ. eigenvalues -- -256.34262 -77.18259 -77.17582 -30.11729 -25.96580
 Alpha  occ. eigenvalues --  -25.94686 -25.94673 -19.23121 -19.22194 -10.28817
 Alpha  occ. eigenvalues --  -10.28220 -10.27556 -10.27350 -10.24628 -10.24570
 Alpha  occ. eigenvalues --  -10.24439 -10.24385 -10.24059 -10.24029 -10.23892
 Alpha  occ. eigenvalues --  -10.23789 -10.23731 -10.23655 -10.23564 -10.23560
 Alpha  occ. eigenvalues --  -10.23556 -10.23542 -10.23507 -10.23473 -10.23457
 Alpha  occ. eigenvalues --  -10.23452 -10.23448 -10.23423 -10.23413 -10.23401
 Alpha  occ. eigenvalues --  -10.23336 -10.23186 -10.23024 -10.22893 -10.22788
 Alpha  occ. eigenvalues --  -10.22782 -10.22678 -10.22668 -10.22475 -10.22452
 Alpha  occ. eigenvalues --  -10.22449 -10.22376 -10.22372 -10.22369 -10.22080
 Alpha  occ. eigenvalues --  -10.22061 -10.22056 -10.22010 -10.21910 -10.21442
 Alpha  occ. eigenvalues --   -6.59285  -6.58644  -4.73342  -4.73334  -4.72802
 Alpha  occ. eigenvalues --   -4.72704  -4.72678  -4.72146  -3.44922  -2.23915
 Alpha  occ. eigenvalues --   -2.19152  -2.19128  -1.08406  -1.07430  -0.91443
 Alpha  occ. eigenvalues --   -0.89571  -0.87977  -0.87682  -0.87111  -0.86930
 Alpha  occ. eigenvalues --   -0.81112  -0.80506  -0.79658  -0.79603  -0.79304
 Alpha  occ. eigenvalues --   -0.79157  -0.77719  -0.77098  -0.76686  -0.73622
 Alpha  occ. eigenvalues --   -0.73175  -0.72503  -0.72226  -0.72094  -0.71228
 Alpha  occ. eigenvalues --   -0.70395  -0.69931  -0.69699  -0.69294  -0.69125
 Alpha  occ. eigenvalues --   -0.68706  -0.68652  -0.67843  -0.66100  -0.63695
 Alpha  occ. eigenvalues --   -0.62080  -0.60017  -0.59933  -0.59468  -0.58902
 Alpha  occ. eigenvalues --   -0.58349  -0.57798  -0.57058  -0.55658  -0.55126
 Alpha  occ. eigenvalues --   -0.54798  -0.54564  -0.54011  -0.53814  -0.53056
 Alpha  occ. eigenvalues --   -0.51804  -0.51579  -0.51212  -0.50516  -0.50064
 Alpha  occ. eigenvalues --   -0.49960  -0.48791  -0.48758  -0.48265  -0.47972
 Alpha  occ. eigenvalues --   -0.46720  -0.45513  -0.45386  -0.44778  -0.44298
 Alpha  occ. eigenvalues --   -0.43959  -0.43674  -0.43609  -0.43585  -0.43384
 Alpha  occ. eigenvalues --   -0.43232  -0.42993  -0.42797  -0.42721  -0.42482
 Alpha  occ. eigenvalues --   -0.42431  -0.42278  -0.42132  -0.42059  -0.41924
 Alpha  occ. eigenvalues --   -0.41831  -0.41483  -0.41396  -0.41168  -0.41113
 Alpha  occ. eigenvalues --   -0.41044  -0.40922  -0.40691  -0.40489  -0.40297
 Alpha  occ. eigenvalues --   -0.40176  -0.39660  -0.38956  -0.38760  -0.38710
 Alpha  occ. eigenvalues --   -0.38521  -0.38284  -0.38176  -0.37921  -0.37719
 Alpha  occ. eigenvalues --   -0.37461  -0.36872  -0.36675  -0.36469  -0.36212
 Alpha  occ. eigenvalues --   -0.35818  -0.35706  -0.35645  -0.35293  -0.34805
 Alpha  occ. eigenvalues --   -0.34733  -0.34635  -0.33893  -0.33036  -0.32689
 Alpha  occ. eigenvalues --   -0.31857  -0.29144  -0.28311  -0.28031  -0.27668
 Alpha  occ. eigenvalues --   -0.27206  -0.26534  -0.25671  -0.25620  -0.25461
 Alpha  occ. eigenvalues --   -0.25182  -0.24814  -0.24584  -0.24480  -0.24363
 Alpha  occ. eigenvalues --   -0.24074  -0.21877  -0.21060  -0.20759  -0.16964
 Alpha virt. eigenvalues --   -0.01709  -0.01424  -0.00579  -0.00523  -0.00067
 Alpha virt. eigenvalues --    0.00029   0.00514   0.00688   0.00889   0.01177
 Alpha virt. eigenvalues --    0.04108   0.04695   0.05717   0.06455   0.06502

 Mulliken charges:
               1
     1  P    0.401927
     2  C   -0.083003
     3  C   -0.214219
     4  C   -0.017650
     5  C    0.095408
     6  C   -0.019872
     7  C   -0.219029
     8  C   -0.073110
     9  C   -0.251317
    10  C   -0.008977
    11  C    0.084048
    12  C   -0.005140
    13  C   -0.242441
    14  P    0.335812
    15  C   -0.346729
    16  C   -0.306916
    17  C   -0.141421
    18  C   -0.025536
    19  C   -0.068478
    20  C   -0.044033
    21  C   -0.105994
    22  H    0.102979
    23  H    0.099985
    24  H    0.109866
    25  H    0.093916
    26  H    0.167626
    27  H    0.137985
    28  H    0.152329
    29  H    0.145858
    30  H    0.118225
    31  C   -0.181077
    32  C    0.018044
    33  C   -0.191393
    34  C   -0.113066
    35  C   -0.159753
    36  C    0.017582
    37  H    0.100131
    38  H    0.111267
    39  C   -0.196175
    40  C    0.021694
    41  C   -0.201400
    42  C   -0.068169
    43  C   -0.211088
    44  C    0.032362
    45  H    0.096204
    46  H    0.081219
    47  Fe  -0.213653
    48  C   -0.086084
    49  C   -0.069125
    50  C   -0.095549
    51  C   -0.111366
    52  C   -0.086317
    53  H    0.111624
    54  H    0.106971
    55  H    0.147736
    56  H    0.110181
    57  H    0.065114
    58  H    0.060849
    59  C   -0.291446
    60  H    0.139612
    61  H    0.129089
    62  H    0.136210
    63  C   -0.310663
    64  H    0.128545
    65  H    0.154434
    66  H    0.146479
    67  C   -0.292963
    68  H    0.130551
    69  H    0.145530
    70  H    0.128883
    71  C   -0.307908
    72  H    0.133241
    73  H    0.137868
    74  H    0.142463
    75  H    0.105090
    76  H    0.097872
    77  H    0.112053
    78  O   -0.362529
    79  O   -0.359977
    80  C   -0.317091
    81  H    0.147965
    82  H    0.146993
    83  H    0.148509
    84  C   -0.281829
    85  H    0.150763
    86  H    0.135691
    87  H    0.126220
    88  C   -0.127927
    89  H    0.120678
    90  H    0.141495
    91  H    0.120793
    92  C   -0.122201
    93  H    0.116005
    94  H    0.137590
    95  H    0.116209
    96  C   -0.300314
    97  H    0.146131
    98  H    0.140248
    99  H    0.131664
   100  C   -0.300000
   101  H    0.146517
   102  H    0.130834
   103  H    0.133763
 Sum of Mulliken charges =  -0.00000

 Dipole moment (field-independent basis, Debye):
    X=              1.8920    Y=             -0.3039    Z=              0.1715  Tot=              1.9239
 Quadrupole moment (field-independent basis, Debye-Ang):
   XX=           -311.6415   YY=           -321.2190   ZZ=           -289.3843
   XY=             22.6283   XZ=             -6.4606   YZ=              2.9938

 Summary of Natural Population Analysis:

                                       Natural Population
                Natural  -----------------------------------------------
    Atom  No    Charge         Core      Valence    Rydberg      Total
 -----------------------------------------------------------------------
      P    1    0.88884      9.99787     4.06650    0.04680    14.11116
      C    2   -0.34758      1.99885     4.32227    0.02647     6.34758
      C    3   -0.20027      1.99884     4.18382    0.01761     6.20027
      C    4   -0.07581      1.99881     4.06123    0.01577     6.07581
      C    5    0.33541      1.99849     3.64053    0.02558     5.66459
      C    6   -0.06935      1.99881     4.05402    0.01653     6.06935
      C    7   -0.20859      1.99887     4.18999    0.01974     6.20859
      C    8   -0.34238      1.99890     4.31943    0.02405     6.34238
      C    9   -0.22108      1.99887     4.20488    0.01732     6.22108
      C   10   -0.06164      1.99882     4.04644    0.01638     6.06164
      C   11    0.31694      1.99849     3.65884    0.02574     5.68306
      C   12   -0.06430      1.99883     4.04937    0.01610     6.06430
      C   13   -0.22022      1.99887     4.20421    0.01714     6.22022
      P   14    0.84800      9.99807     4.10969    0.04424    14.15200
      C   15   -0.51097      1.99899     4.48898    0.02301     6.51097
      C   16   -0.62830      1.99926     4.61633    0.01272     6.62830
      C   17   -0.38540      1.99857     4.35535    0.03148     6.38540
      C   18   -0.06202      1.99859     4.03085    0.03259     6.06202
      C   19   -0.21876      1.99864     4.19778    0.02234     6.21876
      C   20   -0.22754      1.99867     4.20517    0.02370     6.22754
      C   21   -0.22675      1.99865     4.20203    0.02607     6.22675
      H   22    0.23643      0.00000     0.76144    0.00213     0.76357
      H   23    0.23461      0.00000     0.76333    0.00206     0.76539
      H   24    0.22666      0.00000     0.77087    0.00247     0.77334
      H   25    0.22931      0.00000     0.76861    0.00208     0.77069
      H   26    0.26429      0.00000     0.73223    0.00348     0.73571
      H   27    0.21480      0.00000     0.78284    0.00236     0.78520
      H   28    0.23173      0.00000     0.76698    0.00129     0.76827
      H   29    0.21975      0.00000     0.77845    0.00180     0.78025
      H   30    0.25767      0.00000     0.74100    0.00133     0.74233
      C   31   -0.20671      1.99884     4.19221    0.01565     6.20671
      C   32   -0.03504      1.99886     4.02061    0.01558     6.03504
      C   33   -0.22166      1.99884     4.20478    0.01804     6.22166
      C   34   -0.34478      1.99888     4.31849    0.02740     6.34478
      C   35   -0.19575      1.99884     4.17859    0.01832     6.19575
      C   36   -0.03320      1.99886     4.01884    0.01550     6.03320
      H   37    0.23122      0.00000     0.76679    0.00199     0.76878
      H   38    0.23363      0.00000     0.76419    0.00218     0.76637
      C   39   -0.22975      1.99884     4.21496    0.01594     6.22975
      C   40   -0.02513      1.99887     4.01066    0.01559     6.02513
      C   41   -0.22942      1.99885     4.21295    0.01762     6.22942
      C   42   -0.33153      1.99891     4.30904    0.02358     6.33153
      C   43   -0.23570      1.99885     4.21980    0.01704     6.23570
      C   44   -0.02770      1.99887     4.01315    0.01568     6.02770
      H   45    0.22934      0.00000     0.76869    0.00197     0.77066
      H   46    0.21453      0.00000     0.78329    0.00218     0.78547
     Fe   47    0.01453     17.99295     7.97442    0.01811    25.98547
      C   48   -0.24028      1.99866     4.21871    0.02291     6.24028
      C   49   -0.23932      1.99867     4.21776    0.02289     6.23932
      C   50   -0.24419      1.99868     4.22265    0.02286     6.24419
      C   51   -0.23770      1.99870     4.21562    0.02339     6.23770
      C   52   -0.24374      1.99868     4.22177    0.02330     6.24374
      H   53    0.24467      0.00000     0.75416    0.00116     0.75533
      H   54    0.24196      0.00000     0.75629    0.00175     0.75804
      H   55    0.24908      0.00000     0.74732    0.00361     0.75092
      H   56    0.24207      0.00000     0.75651    0.00142     0.75793
      H   57    0.21617      0.00000     0.78193    0.00190     0.78383
      H   58    0.21491      0.00000     0.78320    0.00189     0.78509
      C   59   -0.63141      1.99923     4.62279    0.00940     6.63141
      H   60    0.22700      0.00000     0.77142    0.00157     0.77300
      H   61    0.22044      0.00000     0.77821    0.00135     0.77956
      H   62    0.22525      0.00000     0.77320    0.00155     0.77475
      C   63   -0.63405      1.99923     4.62542    0.00940     6.63405
      H   64    0.22084      0.00000     0.77774    0.00143     0.77916
      H   65    0.22881      0.00000     0.76957    0.00162     0.77119
      H   66    0.22719      0.00000     0.77133    0.00148     0.77281
      C   67   -0.63044      1.99923     4.62190    0.00932     6.63044
      H   68    0.22183      0.00000     0.77674    0.00143     0.77817
      H   69    0.22951      0.00000     0.76888    0.00161     0.77049
      H   70    0.22063      0.00000     0.77790    0.00148     0.77937
      C   71   -0.62971      1.99922     4.62117    0.00931     6.62971
      H   72    0.22402      0.00000     0.77450    0.00149     0.77598
      H   73    0.21717      0.00000     0.78141    0.00142     0.78283
      H   74    0.22812      0.00000     0.77027    0.00161     0.77188
      H   75    0.24611      0.00000     0.75270    0.00119     0.75389
      H   76    0.25106      0.00000     0.74770    0.00124     0.74894
      H   77    0.24487      0.00000     0.75399    0.00114     0.75513
      O   78   -0.58857      1.99964     6.57870    0.01023     8.58857
      O   79   -0.58636      1.99964     6.57648    0.01024     8.58636
      C   80   -0.63979      1.99924     4.63045    0.01010     6.63979
      H   81    0.22716      0.00000     0.77133    0.00151     0.77284
      H   82    0.23315      0.00000     0.76395    0.00289     0.76685
      H   83    0.22417      0.00000     0.77440    0.00143     0.77583
      C   84   -0.63487      1.99925     4.62464    0.01098     6.63487
      H   85    0.23747      0.00000     0.76036    0.00217     0.76253
      H   86    0.22487      0.00000     0.77364    0.00149     0.77513
      H   87    0.21967      0.00000     0.77908    0.00126     0.78033
      C   88   -0.22476      1.99929     4.21140    0.01408     6.22476
      H   89    0.17585      0.00000     0.82192    0.00224     0.82415
      H   90    0.20005      0.00000     0.79894    0.00101     0.79995
      H   91    0.17544      0.00000     0.82216    0.00240     0.82456
      C   92   -0.22312      1.99929     4.20984    0.01399     6.22312
      H   93    0.17329      0.00000     0.82424    0.00247     0.82671
      H   94    0.19753      0.00000     0.80136    0.00110     0.80247
      H   95    0.17398      0.00000     0.82369    0.00233     0.82602
      C   96   -0.63878      1.99925     4.62962    0.00991     6.63878
      H   97    0.23263      0.00000     0.76439    0.00298     0.76737
      H   98    0.22238      0.00000     0.77609    0.00153     0.77762
      H   99    0.22487      0.00000     0.77377    0.00136     0.77513
      C  100   -0.63344      1.99924     4.62360    0.01060     6.63344
      H  101    0.23491      0.00000     0.76273    0.00236     0.76509
      H  102    0.21841      0.00000     0.78007    0.00152     0.78159
      H  103    0.22264      0.00000     0.77587    0.00149     0.77736
 =======================================================================
   * Total *   -0.00000    133.93713   264.99035    1.07252   400.00000

 Normal termination of Gaussian 16 at Fri Sep 29 19:35:20 2023.
