 Gaussian 16, Revision C.02,
 Gaussian 16:  ES64L-G16RevC.02  7-Dec-2021

 ----------------------------------------------------------------------
 #p pop=nbo pbe1pbe/def2svpp empiricaldispersion=gd3bj integral=grid=ul
 trafinegrid scf=(xqc,maxconventionalcycles=90) nosymm
 ----------------------------------------------------------------------

 ----
 Cisa
 ----
 Symbolic Z-matrix:
 Charge =  0 Multiplicity = 1

                          Input orientation:
 ---------------------------------------------------------------------
 Center     Atomic      Atomic             Coordinates (Angstroms)
 Number     Number       Type             X           Y           Z
 ---------------------------------------------------------------------
      1         15           0        0.159890    0.757270   -0.573580
      2          6           0        1.600500    0.879320   -1.688220
      3          6           0        1.463520    0.340690   -2.966580
      4          6           0        2.541220    0.333840   -3.849480
      5          6           0        3.770850    0.855660   -3.459640
      6          6           0        3.910290    1.386960   -2.176090
      7          6           0        2.831490    1.411150   -1.295000
      8          6           0        0.308590    2.208980    0.523820
      9          6           0        0.082170    2.114160    1.902730
     10          6           0        0.127600    3.259900    2.690810
     11          6           0        0.347340    4.514050    2.116360
     12          6           0        0.547870    4.607520    0.743890
     13          6           0        0.549780    3.459340   -0.047610
     14         15           0       -2.645420   -0.774050   -0.257520
     15          6           0       -1.501370   -2.236720   -0.063520
     16          6           0       -2.156490   -3.505840    0.470850
     17          6           0        0.525330   -0.633850    0.507970
     18          6           0       -0.276750   -1.819710    0.706120
     19          6           0        0.311890   -2.543410    1.785540
     20          6           0        1.465630   -1.844160    2.237260
     21          6           0        1.610370   -0.674700    1.449780
     22          1           0        0.497670   -0.075800   -3.273560
     23          1           0        2.959060    1.847330   -0.300680
     24          1           0       -0.116360    1.145140    2.365990
     25          1           0        0.751910    3.549620   -1.119440
     26          1           0       -1.203420   -2.427090   -1.110090
     27          1           0       -1.430830   -4.336570    0.444090
     28          1           0       -3.020610   -3.793240   -0.147290
     29          1           0       -2.510770   -3.394860    1.507800
     30          1           0        2.400600    0.069830    1.545870
     31          6           0       -3.178110    1.456630    3.723130
     32          6           0       -2.779800    0.116090    3.781970
     33          6           0       -2.624660   -0.587920    2.583360
     34          6           0       -2.846240    0.042310    1.354740
     35          6           0       -3.226100    1.391050    1.328120
     36          6           0       -3.404930    2.114190    2.509790
     37          1           0       -2.312720   -1.632970    2.624100
     38          1           0       -3.367330    1.891420    0.363070
     39          6           0       -6.706700   -2.519400   -1.484530
     40          6           0       -6.636140   -1.776440   -0.303700
     41          6           0       -5.393440   -1.257240    0.084420
     42          6           0       -4.260020   -1.474770   -0.700380
     43          6           0       -4.360170   -2.217390   -1.885590
     44          6           0       -5.583230   -2.755400   -2.288800
     45          1           0       -5.314030   -0.683360    1.012560
     46          1           0       -3.470240   -2.397240   -2.500360
     47         26           0        1.643280   -2.315430    0.250600
     48          6           0        2.607340   -4.107240    0.048810
     49          6           0        3.538950   -3.034390   -0.044500
     50          6           0        3.151960   -2.206630   -1.134910
     51          6           0        1.980690   -2.772260   -1.721400
     52          6           0        1.645290   -3.945900   -0.989890
     53          1           0        2.613500   -4.897360    0.799980
     54          1           0        3.661740   -1.297540   -1.452150
     55          1           0        1.445000   -2.380580   -2.585280
     56          1           0        0.792720   -4.599120   -1.179680
     57          1           0        4.616440    0.851890   -4.150520
     58          1           0        0.374420    5.412850    2.736700
     59          1           0       -3.295160    2.014090    4.658160
     60          1           0       -7.672560   -2.935290   -1.791730
     61          6           0       -2.506900   -0.536440    5.105910
     62          1           0       -3.387900   -0.480650    5.768560
     63          1           0       -2.236070   -1.597710    4.987800
     64          1           0       -1.675650   -0.027400    5.624430
     65          6           0       -3.814190    3.558320    2.478890
     66          1           0       -4.831990    3.691670    2.886890
     67          1           0       -3.134770    4.173730    3.091530
     68          1           0       -3.808550    3.956630    1.451230
     69          6           0       -7.864810   -1.520760    0.520970
     70          1           0       -7.608990   -1.298050    1.569470
     71          1           0       -8.428550   -0.655370    0.126460
     72          1           0       -8.546630   -2.386890    0.508250
     73          6           0       -5.702200   -3.568300   -3.545850
     74          1           0       -6.445120   -3.129950   -4.234900
     75          1           0       -4.740700   -3.634850   -4.080100
     76          1           0       -6.036060   -4.596980   -3.322790
     77          9           0        1.927840   -1.516880   -5.145870
     78          6           0        2.321010   -0.240050   -5.224890
     79          9           0        1.348430    0.426290   -5.859160
     80          9           0        3.413630   -0.189470   -5.973490
     81          9           0        5.912010    0.855450   -1.098620
     82          6           0        5.261630    1.858160   -1.699560
     83          9           0        6.017010    2.284770   -2.705910
     84          9           0        5.145500    2.846260   -0.813290
     85          9           0        0.988470    3.754380    4.809630
     86          6           0       -0.035810    3.175220    4.187550
     87          9           0       -1.146860    3.803490    4.592740
     88          9           0       -0.110170    1.912270    4.610390
     89          9           0       -0.291290    6.191120   -0.754170
     90          6           0        0.740430    5.939020    0.064910
     91          9           0        0.823450    6.937930    0.934660
     92          9           0        1.842860    5.940620   -0.684310
     93          1           0        2.144610   -2.173610    3.023460
     94          1           0       -0.033990   -3.501250    2.171070
     95          1           0        4.381800   -2.858190    0.624150
 ---------------------------------------------------------------------

 SCF Done:  E(RPBE1PBE) =  -4836.98047326     A.U. after   19 cycles

 Alpha  occ. eigenvalues -- -256.36361 -77.21490 -77.18869 -30.13841 -25.98682
 Alpha  occ. eigenvalues --  -25.96821 -25.96765 -24.82233 -24.81913 -24.81723
 Alpha  occ. eigenvalues --  -24.81674 -24.81602 -24.81523 -24.81365 -24.81277
 Alpha  occ. eigenvalues --  -24.81248 -24.81217 -24.80888 -24.80418 -10.49198
 Alpha  occ. eigenvalues --  -10.49134 -10.48762 -10.48432 -10.28551 -10.28538
 Alpha  occ. eigenvalues --  -10.28220 -10.27843 -10.27795 -10.27727 -10.27677
 Alpha  occ. eigenvalues --  -10.27654 -10.27327 -10.27111 -10.27074 -10.26976
 Alpha  occ. eigenvalues --  -10.26726 -10.26155 -10.25989 -10.25642 -10.25540
 Alpha  occ. eigenvalues --  -10.25455 -10.25162 -10.25115 -10.25081 -10.24982
 Alpha  occ. eigenvalues --  -10.24854 -10.24815 -10.24757 -10.24621 -10.24486
 Alpha  occ. eigenvalues --  -10.24306 -10.24186 -10.23717 -10.23580 -10.23328
 Alpha  occ. eigenvalues --  -10.23266 -10.22919 -10.22818 -10.22782 -10.22776
 Alpha  occ. eigenvalues --  -10.22684 -10.22533 -10.22505  -6.62475  -6.59923
 Alpha  occ. eigenvalues --   -4.76538  -4.76506  -4.76000  -4.73991  -4.73960
 Alpha  occ. eigenvalues --   -4.73422  -3.47022  -2.26000  -2.21294  -2.21196
 Alpha  occ. eigenvalues --   -1.34982  -1.34960  -1.34627  -1.34256  -1.25749
 Alpha  occ. eigenvalues --   -1.25622  -1.25162  -1.25060  -1.25059  -1.24838
 Alpha  occ. eigenvalues --   -1.24773  -1.24108  -0.93534  -0.92746  -0.91846
 Alpha  occ. eigenvalues --   -0.91411  -0.88515  -0.87848  -0.84089  -0.83284
 Alpha  occ. eigenvalues --   -0.83065  -0.82518  -0.80847  -0.80270  -0.79933
 Alpha  occ. eigenvalues --   -0.78749  -0.77437  -0.75762  -0.74176  -0.73963
 Alpha  occ. eigenvalues --   -0.73852  -0.73491  -0.73270  -0.73120  -0.72566
 Alpha  occ. eigenvalues --   -0.70914  -0.70499  -0.69709  -0.69416  -0.69264
 Alpha  occ. eigenvalues --   -0.67391  -0.67298  -0.66877  -0.66574  -0.65423
 Alpha  occ. eigenvalues --   -0.63432  -0.62954  -0.62866  -0.62589  -0.62471
 Alpha  occ. eigenvalues --   -0.62430  -0.62231  -0.62075  -0.61736  -0.60860
 Alpha  occ. eigenvalues --   -0.60705  -0.58933  -0.58860  -0.58524  -0.57694
 Alpha  occ. eigenvalues --   -0.56711  -0.56662  -0.56507  -0.55897  -0.55794
 Alpha  occ. eigenvalues --   -0.55417  -0.54286  -0.53586  -0.53498  -0.52218
 Alpha  occ. eigenvalues --   -0.52132  -0.51509  -0.51120  -0.50554  -0.50028
 Alpha  occ. eigenvalues --   -0.49962  -0.49800  -0.49768  -0.49573  -0.49510
 Alpha  occ. eigenvalues --   -0.49508  -0.49293  -0.49074  -0.48819  -0.47109
 Alpha  occ. eigenvalues --   -0.46682  -0.46434  -0.46343  -0.46145  -0.45821
 Alpha  occ. eigenvalues --   -0.45610  -0.45502  -0.45293  -0.45146  -0.44979
 Alpha  occ. eigenvalues --   -0.44562  -0.44173  -0.44058  -0.43966  -0.43899
 Alpha  occ. eigenvalues --   -0.43851  -0.43724  -0.43686  -0.43620  -0.43600
 Alpha  occ. eigenvalues --   -0.43467  -0.43298  -0.43226  -0.43027  -0.43014
 Alpha  occ. eigenvalues --   -0.42830  -0.42729  -0.42665  -0.42560  -0.42084
 Alpha  occ. eigenvalues --   -0.41924  -0.41833  -0.41271  -0.41259  -0.41014
 Alpha  occ. eigenvalues --   -0.40933  -0.40809  -0.40413  -0.40265  -0.39581
 Alpha  occ. eigenvalues --   -0.39171  -0.38986  -0.38880  -0.38689  -0.38485
 Alpha  occ. eigenvalues --   -0.38220  -0.37849  -0.37545  -0.36930  -0.36340
 Alpha  occ. eigenvalues --   -0.36054  -0.35591  -0.35298  -0.33684  -0.32912
 Alpha  occ. eigenvalues --   -0.31570  -0.31448  -0.30862  -0.30035  -0.29573
 Alpha  occ. eigenvalues --   -0.29410  -0.27952  -0.27539  -0.27115  -0.26321
 Alpha  occ. eigenvalues --   -0.26014  -0.25605  -0.25101  -0.24624  -0.23138
 Alpha  occ. eigenvalues --   -0.23110  -0.19112
 Alpha virt. eigenvalues --   -0.06022  -0.05528  -0.04749  -0.04093  -0.02845
 Alpha virt. eigenvalues --   -0.01655  -0.01303  -0.00616  -0.00398   0.00481
 Alpha virt. eigenvalues --    0.01764   0.03646   0.05087   0.05415   0.05654

 Mulliken charges:
               1
     1  P    0.436762
     2  C   -0.097769
     3  C   -0.135870
     4  C   -0.103730
     5  C   -0.134046
     6  C   -0.117135
     7  C   -0.140227
     8  C   -0.127211
     9  C   -0.142801
    10  C   -0.097939
    11  C   -0.149418
    12  C   -0.096305
    13  C   -0.152755
    14  P    0.313510
    15  C   -0.308015
    16  C   -0.304929
    17  C   -0.199800
    18  C   -0.022991
    19  C   -0.100763
    20  C   -0.017110
    21  C   -0.104692
    22  H    0.128121
    23  H    0.136345
    24  H    0.169940
    25  H    0.121106
    26  H    0.159808
    27  H    0.134642
    28  H    0.165187
    29  H    0.138825
    30  H    0.114531
    31  C   -0.181671
    32  C    0.012348
    33  C   -0.165123
    34  C   -0.154652
    35  C   -0.161698
    36  C    0.013460
    37  H    0.089020
    38  H    0.092352
    39  C   -0.186462
    40  C    0.027312
    41  C   -0.189463
    42  C   -0.067007
    43  C   -0.198228
    44  C    0.020359
    45  H    0.107680
    46  H    0.075885
    47  Fe  -0.221605
    48  C   -0.082109
    49  C   -0.065142
    50  C   -0.108497
    51  C   -0.097660
    52  C   -0.078190
    53  H    0.119062
    54  H    0.137655
    55  H    0.116941
    56  H    0.115915
    57  H    0.122786
    58  H    0.117304
    59  H    0.072434
    60  H    0.063903
    61  C   -0.289529
    62  H    0.138172
    63  H    0.125340
    64  H    0.144086
    65  C   -0.291597
    66  H    0.140653
    67  H    0.142685
    68  H    0.132007
    69  C   -0.292802
    70  H    0.132431
    71  H    0.145454
    72  H    0.130952
    73  C   -0.291226
    74  H    0.140679
    75  H    0.127404
    76  H    0.138987
    77  F   -0.178249
    78  C    0.619780
    79  F   -0.180486
    80  F   -0.162677
    81  F   -0.175284
    82  C    0.614477
    83  F   -0.169108
    84  F   -0.172871
    85  F   -0.174586
    86  C    0.629140
    87  F   -0.182727
    88  F   -0.172520
    89  F   -0.185156
    90  C    0.610881
    91  F   -0.167100
    92  F   -0.178531
    93  H    0.114007
    94  H    0.103770
    95  H    0.121364
 Sum of Mulliken charges =  -0.00000

 Dipole moment (field-independent basis, Debye):
    X=             -1.4978    Y=             -3.9113    Z=              2.2483  Tot=              4.7536
 Quadrupole moment (field-independent basis, Debye-Ang):
   XX=           -354.1605   YY=           -361.4099   ZZ=           -360.0329
   XY=             -0.2819   XZ=              2.6525   YZ=             -1.6741

 Summary of Natural Population Analysis:

                                       Natural Population
                Natural  -----------------------------------------------
    Atom  No    Charge         Core      Valence    Rydberg      Total
 -----------------------------------------------------------------------
      P    1    0.89708      9.99785     4.05958    0.04549    14.10292
      C    2   -0.32425      1.99888     4.29594    0.02943     6.32425
      C    3   -0.17030      1.99887     4.15105    0.02038     6.17030
      C    4   -0.16829      1.99874     4.15036    0.01920     6.16829
      C    5   -0.17739      1.99890     4.16055    0.01795     6.17739
      C    6   -0.17010      1.99872     4.15222    0.01915     6.17010
      C    7   -0.17186      1.99886     4.15358    0.01942     6.17186
      C    8   -0.32890      1.99891     4.30406    0.02593     6.32890
      C    9   -0.18185      1.99888     4.16180    0.02116     6.18185
      C   10   -0.16430      1.99873     4.14636    0.01921     6.16430
      C   11   -0.18665      1.99890     4.16936    0.01838     6.18665
      C   12   -0.16599      1.99875     4.14808    0.01916     6.16599
      C   13   -0.18193      1.99889     4.16415    0.01890     6.18193
      P   14    0.83139      9.99807     4.12630    0.04424    14.16861
      C   15   -0.51826      1.99900     4.49718    0.02208     6.51826
      C   16   -0.62442      1.99926     4.61255    0.01261     6.62442
      C   17   -0.40766      1.99857     4.37782    0.03127     6.40766
      C   18   -0.04975      1.99859     4.01948    0.03168     6.04975
      C   19   -0.22635      1.99864     4.20592    0.02180     6.22635
      C   20   -0.21885      1.99867     4.19630    0.02389     6.21885
      C   21   -0.22535      1.99864     4.20064    0.02607     6.22535
      H   22    0.25191      0.00000     0.74570    0.00239     0.74809
      H   23    0.24939      0.00000     0.74795    0.00266     0.75061
      H   24    0.25945      0.00000     0.73596    0.00459     0.74055
      H   25    0.24441      0.00000     0.75308    0.00251     0.75559
      H   26    0.26966      0.00000     0.72701    0.00333     0.73034
      H   27    0.21332      0.00000     0.78436    0.00232     0.78668
      H   28    0.23857      0.00000     0.75993    0.00150     0.76143
      H   29    0.21500      0.00000     0.78369    0.00131     0.78500
      H   30    0.25442      0.00000     0.74424    0.00135     0.74558
      C   31   -0.21053      1.99884     4.19398    0.01771     6.21053
      C   32   -0.03008      1.99885     4.01513    0.01610     6.03008
      C   33   -0.21397      1.99882     4.19655    0.01860     6.21397
      C   34   -0.35502      1.99889     4.33002    0.02611     6.35502
      C   35   -0.20981      1.99883     4.19261    0.01837     6.20981
      C   36   -0.03429      1.99885     4.01887    0.01657     6.03429
      H   37    0.22053      0.00000     0.77676    0.00272     0.77947
      H   38    0.23600      0.00000     0.76225    0.00175     0.76400
      C   39   -0.22207      1.99884     4.20726    0.01597     6.22207
      C   40   -0.02567      1.99888     4.01120    0.01560     6.02567
      C   41   -0.22025      1.99883     4.20395    0.01747     6.22025
      C   42   -0.32904      1.99889     4.30559    0.02456     6.32904
      C   43   -0.23111      1.99884     4.21495    0.01732     6.23111
      C   44   -0.02907      1.99887     4.01458    0.01562     6.02907
      H   45    0.23069      0.00000     0.76678    0.00252     0.76931
      H   46    0.21950      0.00000     0.77846    0.00205     0.78050
     Fe   47    0.01236     17.99288     7.97639    0.01837    25.98764
      C   48   -0.23421      1.99866     4.21274    0.02281     6.23421
      C   49   -0.23023      1.99867     4.20884    0.02272     6.23023
      C   50   -0.23607      1.99869     4.21357    0.02381     6.23607
      C   51   -0.24067      1.99869     4.21865    0.02333     6.24067
      C   52   -0.23923      1.99868     4.21739    0.02317     6.23923
      H   53    0.24770      0.00000     0.75115    0.00115     0.75230
      H   54    0.24324      0.00000     0.75253    0.00423     0.75676
      H   55    0.24583      0.00000     0.75170    0.00248     0.75417
      H   56    0.24609      0.00000     0.75256    0.00134     0.75391
      H   57    0.25632      0.00000     0.74091    0.00277     0.74368
      H   58    0.25000      0.00000     0.74723    0.00276     0.75000
      H   59    0.22356      0.00000     0.77417    0.00228     0.77644
      H   60    0.21604      0.00000     0.78206    0.00190     0.78396
      C   61   -0.63219      1.99922     4.62335    0.00962     6.63219
      H   62    0.22677      0.00000     0.77173    0.00150     0.77323
      H   63    0.21838      0.00000     0.78029    0.00133     0.78162
      H   64    0.23244      0.00000     0.76562    0.00194     0.76756
      C   65   -0.63367      1.99922     4.62474    0.00971     6.63367
      H   66    0.22856      0.00000     0.76995    0.00149     0.77144
      H   67    0.23088      0.00000     0.76696    0.00216     0.76912
      H   68    0.22267      0.00000     0.77602    0.00132     0.77733
      C   69   -0.63100      1.99923     4.62239    0.00938     6.63100
      H   70    0.22259      0.00000     0.77602    0.00140     0.77741
      H   71    0.22960      0.00000     0.76881    0.00159     0.77040
      H   72    0.22196      0.00000     0.77656    0.00147     0.77804
      C   73   -0.63115      1.99923     4.62253    0.00939     6.63115
      H   74    0.22817      0.00000     0.77030    0.00153     0.77183
      H   75    0.21941      0.00000     0.77924    0.00135     0.78059
      H   76    0.22674      0.00000     0.77171    0.00155     0.77326
      F   77   -0.37697      1.99989     7.37193    0.00514     9.37697
      C   78    1.18319      1.99896     2.74420    0.07364     4.81681
      F   79   -0.37341      1.99989     7.36834    0.00518     9.37341
      F   80   -0.36919      1.99988     7.36391    0.00540     9.36919
      F   81   -0.37542      1.99989     7.37025    0.00528     9.37542
      C   82    1.18230      1.99897     2.74474    0.07399     4.81770
      F   83   -0.37138      1.99989     7.36611    0.00538     9.37138
      F   84   -0.37284      1.99989     7.36760    0.00535     9.37284
      F   85   -0.37150      1.99989     7.36641    0.00521     9.37150
      C   86    1.18427      1.99896     2.74341    0.07336     4.81573
      F   87   -0.37803      1.99989     7.37313    0.00501     9.37803
      F   88   -0.37492      1.99989     7.36978    0.00526     9.37492
      F   89   -0.37628      1.99989     7.37127    0.00512     9.37628
      C   90    1.18188      1.99897     2.74548    0.07367     4.81812
      F   91   -0.37214      1.99989     7.36688    0.00537     9.37214
      F   92   -0.37355      1.99989     7.36839    0.00527     9.37355
      H   93    0.25116      0.00000     0.74765    0.00120     0.74884
      H   94    0.25459      0.00000     0.74418    0.00123     0.74541
      H   95    0.24947      0.00000     0.74939    0.00114     0.75053
 =======================================================================
   * Total *    0.00000    149.93726   312.73332    1.32942   464.00000

 Normal termination of Gaussian 16 at Fri Sep 29 19:35:14 2023.
