 Gaussian 16, Revision C.02,
 Gaussian 16:  ES64L-G16RevC.02  7-Dec-2021

 ----------------------------------------------------------------------
 #p pop=nbo pbe1pbe/def2svpp empiricaldispersion=gd3bj integral=grid=ul
 trafinegrid scf=(xqc,maxconventionalcycles=90) nosymm
 ----------------------------------------------------------------------

 ----
 Cisa
 ----
 Symbolic Z-matrix:
 Charge =  0 Multiplicity = 1

                          Input orientation:
 ---------------------------------------------------------------------
 Center     Atomic      Atomic             Coordinates (Angstroms)
 Number     Number       Type             X           Y           Z
 ---------------------------------------------------------------------
      1          6           0       -3.565210   -0.907450   -1.311490
      2          6           0       -4.299730   -1.401440   -0.193860
      3          6           0       -5.130820   -0.349920    0.285860
      4          6           0       -4.908450    0.794830   -0.530900
      5          6           0       -3.944570    0.446430   -1.520350
      6          1           0       -2.842600   -1.465760   -1.905540
      7          1           0       -4.239330   -2.404140    0.226610
      8          1           0       -5.797980   -0.402410    1.146510
      9          1           0       -5.378110    1.770940   -0.407100
     10          1           0       -3.563570    1.100550   -2.304460
     11         26           0       -3.166940    0.210160    0.372110
     12          6           0       -2.386510    1.906200    1.194590
     13          6           0       -1.364180    1.172520    0.517450
     14          6           0       -1.302800   -0.127780    1.133850
     15          6           0       -2.295010   -0.178270    2.169780
     16          6           0       -2.949740    1.080620    2.208150
     17          1           0       -2.720480    2.914100    0.953220
     18          1           0       -2.503300   -1.034110    2.810800
     19          1           0       -3.773890    1.352660    2.867390
     20          6           0       -0.523200    1.659140   -0.631970
     21          1           0       -0.505750    0.850300   -1.384340
     22         15           0        0.023620   -1.297410    0.812230
     23          6           0       -1.179890    2.875860   -1.284510
     24          1           0       -0.757900    3.100430   -2.272360
     25          1           0       -2.248420    2.652120   -1.430940
     26          1           0       -1.112840    3.782910   -0.667680
     27         15           0        1.323640    1.745890   -0.166210
     28          6           0        2.145020    2.641800   -1.633910
     29          6           0        1.474000    2.763210    1.433960
     30          6           0        0.537590    3.971140    1.486990
     31          1           0       -0.519690    3.668380    1.482570
     32          1           0        0.716410    4.513690    2.433520
     33          1           0        0.710090    4.682070    0.664880
     34          6           0        2.916130    3.239300    1.626490
     35          1           0        3.003090    3.684060    2.634130
     36          1           0        3.639880    2.409780    1.571700
     37          1           0        3.206770    4.017870    0.904960
     38          6           0        1.139090    1.820260    2.597550
     39          1           0        1.292100    2.358860    3.550870
     40          1           0        0.092330    1.481820    2.568960
     41          1           0        1.800700    0.932590    2.595790
     42          6           0        1.708180    1.864740   -2.885030
     43          1           0        0.643420    1.993940   -3.131090
     44          1           0        2.289390    2.219940   -3.754860
     45          1           0        1.903230    0.782290   -2.771020
     46          6           0        3.674880    2.553760   -1.560660
     47          1           0        4.094570    3.030100   -0.664560
     48          1           0        4.043430    1.523930   -1.612940
     49          1           0        4.087890    3.088950   -2.434540
     50          6           0        1.803930    4.131860   -1.758450
     51          1           0        2.218030    4.504810   -2.713050
     52          1           0        0.731170    4.356060   -1.758660
     53          1           0        2.275650    4.719890   -0.954980
     54          6           0       -0.558630   -2.421260   -0.501670
     55          6           0       -1.583670   -3.347680   -0.275680
     56          6           0       -0.009490   -2.298480   -1.781970
     57          6           0       -2.056550   -4.135850   -1.319040
     58          1           0       -2.020810   -3.452310    0.721030
     59          6           0       -0.493840   -3.074180   -2.832970
     60          1           0        0.808970   -1.588370   -1.947420
     61          6           0       -1.520200   -3.988890   -2.600460
     62          1           0       -2.852590   -4.863510   -1.142410
     63          1           0       -0.068080   -2.975250   -3.834330
     64          6           0        0.115970   -2.314340    2.327990
     65          6           0        0.322680   -3.697620    2.279130
     66          6           0        0.153330   -1.666760    3.573360
     67          6           0        0.552940   -4.421940    3.448210
     68          1           0        0.300400   -4.230700    1.325560
     69          6           0        0.379960   -2.388360    4.738690
     70          1           0        0.003440   -0.586320    3.636100
     71          6           0        0.585260   -3.769030    4.677130
     72          1           0        0.704210   -5.502740    3.399990
     73          1           0        0.395750   -1.875880    5.704080
     74          6           0        0.886290   -4.528850    5.944700
     75          9           0        0.683930   -5.835890    5.794710
     76          9           0        2.160160   -4.354110    6.306420
     77          9           0        0.124150   -4.103410    6.951940
     78          6           0       -2.098730   -4.778560   -3.748570
     79          9           0       -1.194530   -4.979310   -4.706170
     80          9           0       -2.546680   -5.965750   -3.345160
     81          9           0       -3.125850   -4.123170   -4.294580
 ---------------------------------------------------------------------

 SCF Done:  E(RPBE1PBE) =  -3859.68027609     A.U. after   19 cycles

 Alpha  occ. eigenvalues -- -256.35927 -77.20516 -77.18012 -30.13389 -25.98241
 Alpha  occ. eigenvalues --  -25.96351 -25.96328 -24.81113 -24.81109 -24.80578
 Alpha  occ. eigenvalues --  -24.80380 -24.80111 -24.79603 -10.48344 -10.47344
 Alpha  occ. eigenvalues --  -10.27490 -10.26605 -10.26539 -10.26467 -10.26362
 Alpha  occ. eigenvalues --  -10.26275 -10.26251 -10.26214 -10.25877 -10.25695
 Alpha  occ. eigenvalues --  -10.25631 -10.25615 -10.25412 -10.25392 -10.25358
 Alpha  occ. eigenvalues --  -10.25308 -10.25217 -10.25068 -10.25043 -10.25029
 Alpha  occ. eigenvalues --  -10.24852 -10.24804 -10.24723 -10.24631 -10.24516
 Alpha  occ. eigenvalues --  -10.22753 -10.22682 -10.22208 -10.22020 -10.21850
 Alpha  occ. eigenvalues --  -10.21825 -10.21671  -6.61557  -6.58934  -4.75618
 Alpha  occ. eigenvalues --   -4.75592  -4.75072  -4.73001  -4.72960  -4.72422
 Alpha  occ. eigenvalues --   -3.46557  -2.25540  -2.20794  -2.20751  -1.34260
 Alpha  occ. eigenvalues --   -1.33354  -1.24863  -1.24372  -1.24013  -1.23412
 Alpha  occ. eigenvalues --   -0.93096  -0.91125  -0.90887  -0.89664  -0.84492
 Alpha  occ. eigenvalues --   -0.82490  -0.82466  -0.81003  -0.80599  -0.79029
 Alpha  occ. eigenvalues --   -0.77885  -0.75777  -0.73654  -0.73520  -0.72749
 Alpha  occ. eigenvalues --   -0.72713  -0.71621  -0.70761  -0.70248  -0.69509
 Alpha  occ. eigenvalues --   -0.69332  -0.67509  -0.66606  -0.65571  -0.64991
 Alpha  occ. eigenvalues --   -0.64316  -0.61861  -0.61794  -0.61404  -0.61288
 Alpha  occ. eigenvalues --   -0.60932  -0.60515  -0.59713  -0.58719  -0.57405
 Alpha  occ. eigenvalues --   -0.56473  -0.56220  -0.56160  -0.55611  -0.54038
 Alpha  occ. eigenvalues --   -0.53341  -0.52183  -0.51434  -0.50389  -0.49597
 Alpha  occ. eigenvalues --   -0.49301  -0.48810  -0.48607  -0.48355  -0.48165
 Alpha  occ. eigenvalues --   -0.47849  -0.47386  -0.47305  -0.46562  -0.46484
 Alpha  occ. eigenvalues --   -0.46418  -0.46060  -0.45649  -0.45483  -0.44895
 Alpha  occ. eigenvalues --   -0.44680  -0.44604  -0.44467  -0.44009  -0.43779
 Alpha  occ. eigenvalues --   -0.43492  -0.43154  -0.43058  -0.43042  -0.42690
 Alpha  occ. eigenvalues --   -0.42188  -0.42085  -0.41609  -0.41040  -0.40920
 Alpha  occ. eigenvalues --   -0.40381  -0.40231  -0.40022  -0.39948  -0.39786
 Alpha  occ. eigenvalues --   -0.39696  -0.39288  -0.38927  -0.38763  -0.38392
 Alpha  occ. eigenvalues --   -0.38197  -0.37814  -0.37769  -0.37554  -0.37376
 Alpha  occ. eigenvalues --   -0.36556  -0.35933  -0.35500  -0.35063  -0.34202
 Alpha  occ. eigenvalues --   -0.33823  -0.32204  -0.30491  -0.29896  -0.29571
 Alpha  occ. eigenvalues --   -0.29451  -0.29028  -0.28756  -0.28214  -0.27145
 Alpha  occ. eigenvalues --   -0.26462  -0.25942  -0.23902  -0.22643  -0.22454
 Alpha  occ. eigenvalues --   -0.19109
 Alpha virt. eigenvalues --   -0.05113  -0.03298  -0.03178  -0.01958  -0.01229
 Alpha virt. eigenvalues --   -0.00750   0.02139   0.03709   0.04867   0.05555
 Alpha virt. eigenvalues --    0.05620   0.06083   0.06380   0.06691   0.07210

 Mulliken charges:
               1
     1  C   -0.107184
     2  C   -0.086978
     3  C   -0.065290
     4  C   -0.079973
     5  C   -0.092107
     6  H    0.141609
     7  H    0.107687
     8  H    0.119437
     9  H    0.117156
    10  H    0.115585
    11  Fe  -0.222002
    12  C   -0.099671
    13  C   -0.042469
    14  C   -0.180152
    15  C   -0.093629
    16  C   -0.037062
    17  H    0.110164
    18  H    0.123544
    19  H    0.113175
    20  C   -0.320359
    21  H    0.153941
    22  P    0.424819
    23  C   -0.341148
    24  H    0.154206
    25  H    0.150773
    26  H    0.139549
    27  P    0.341273
    28  C   -0.419811
    29  C   -0.427893
    30  C   -0.294740
    31  H    0.153590
    32  H    0.111121
    33  H    0.133542
    34  C   -0.291754
    35  H    0.120221
    36  H    0.142558
    37  H    0.145863
    38  C   -0.343782
    39  H    0.118416
    40  H    0.206442
    41  H    0.152928
    42  C   -0.317145
    43  H    0.141768
    44  H    0.126084
    45  H    0.151268
    46  C   -0.271969
    47  H    0.131260
    48  H    0.129387
    49  H    0.117859
    50  C   -0.289199
    51  H    0.111904
    52  H    0.134220
    53  H    0.140681
    54  C   -0.123405
    55  C   -0.126306
    56  C   -0.112870
    57  C   -0.104094
    58  H    0.128377
    59  C   -0.114189
    60  H    0.128715
    61  C   -0.125692
    62  H    0.111479
    63  H    0.112672
    64  C   -0.113157
    65  C   -0.154496
    66  C   -0.153966
    67  C   -0.098284
    68  H    0.119204
    69  C   -0.098421
    70  H    0.133208
    71  C   -0.123012
    72  H    0.106625
    73  H    0.105244
    74  C    0.601173
    75  F   -0.176532
    76  F   -0.180472
    77  F   -0.181906
    78  C    0.609952
    79  F   -0.176204
    80  F   -0.175761
    81  F   -0.175594
 Sum of Mulliken charges =  -0.00000

 Dipole moment (field-independent basis, Debye):
    X=             -1.4979    Y=              3.9795    Z=             -1.0858  Tot=              4.3885
 Quadrupole moment (field-independent basis, Debye-Ang):
   XX=           -275.7737   YY=           -281.2550   ZZ=           -293.6931
   XY=             -0.8578   XZ=            -16.1085   YZ=              5.1224

 Summary of Natural Population Analysis:

                                       Natural Population
                Natural  -----------------------------------------------
    Atom  No    Charge         Core      Valence    Rydberg      Total
 -----------------------------------------------------------------------
      C    1   -0.23673      1.99870     4.21428    0.02374     6.23673
      C    2   -0.24320      1.99868     4.22183    0.02269     6.24320
      C    3   -0.23313      1.99866     4.21168    0.02279     6.23313
      C    4   -0.23735      1.99866     4.21584    0.02285     6.23735
      C    5   -0.24427      1.99869     4.22207    0.02352     6.24427
      H    6    0.24663      0.00000     0.74964    0.00373     0.75337
      H    7    0.24368      0.00000     0.75483    0.00148     0.75632
      H    8    0.24757      0.00000     0.75129    0.00114     0.75243
      H    9    0.24682      0.00000     0.75201    0.00117     0.75318
      H   10    0.24406      0.00000     0.75446    0.00147     0.75594
     Fe   11    0.02640     17.99288     7.96299    0.01773    25.97360
      C   12   -0.24163      1.99864     4.22136    0.02162     6.24163
      C   13   -0.05677      1.99862     4.02764    0.03051     6.05677
      C   14   -0.40249      1.99856     4.37374    0.03019     6.40249
      C   15   -0.22726      1.99865     4.20270    0.02591     6.22726
      C   16   -0.22347      1.99866     4.20122    0.02359     6.22347
      H   17    0.25594      0.00000     0.74284    0.00121     0.74406
      H   18    0.25993      0.00000     0.73874    0.00133     0.74007
      H   19    0.25073      0.00000     0.74811    0.00117     0.74927
      C   20   -0.52116      1.99901     4.49931    0.02285     6.52116
      H   21    0.26719      0.00000     0.72915    0.00366     0.73281
      P   22    0.89872      9.99788     4.05828    0.04512    14.10128
      C   23   -0.63051      1.99926     4.61813    0.01312     6.63051
      H   24    0.22074      0.00000     0.77796    0.00129     0.77926
      H   25    0.21958      0.00000     0.77741    0.00300     0.78042
      H   26    0.22060      0.00000     0.77799    0.00141     0.77940
      P   27    0.76673      9.99831     4.19656    0.03840    14.23327
      C   28   -0.33759      1.99895     4.31838    0.02026     6.33759
      C   29   -0.33237      1.99893     4.31262    0.02082     6.33237
      C   30   -0.62892      1.99919     4.61460    0.01513     6.62892
      H   31    0.21683      0.00000     0.78104    0.00212     0.78317
      H   32    0.21275      0.00000     0.78463    0.00261     0.78725
      H   33    0.21834      0.00000     0.78025    0.00141     0.78166
      C   34   -0.63057      1.99922     4.61633    0.01502     6.63057
      H   35    0.22007      0.00000     0.77766    0.00227     0.77993
      H   36    0.22693      0.00000     0.77109    0.00198     0.77307
      H   37    0.21417      0.00000     0.78435    0.00148     0.78583
      C   38   -0.63442      1.99920     4.61989    0.01532     6.63442
      H   39    0.21634      0.00000     0.78156    0.00210     0.78366
      H   40    0.21969      0.00000     0.77616    0.00415     0.78031
      H   41    0.23207      0.00000     0.76619    0.00175     0.76793
      C   42   -0.63117      1.99922     4.61737    0.01458     6.63117
      H   43    0.21381      0.00000     0.78464    0.00154     0.78619
      H   44    0.22244      0.00000     0.77541    0.00216     0.77756
      H   45    0.22360      0.00000     0.77441    0.00199     0.77640
      C   46   -0.62048      1.99921     4.60599    0.01528     6.62048
      H   47    0.22047      0.00000     0.77819    0.00134     0.77953
      H   48    0.22376      0.00000     0.77441    0.00184     0.77624
      H   49    0.21480      0.00000     0.78315    0.00205     0.78520
      C   50   -0.62959      1.99920     4.61550    0.01488     6.62959
      H   51    0.21251      0.00000     0.78491    0.00258     0.78749
      H   52    0.21991      0.00000     0.77870    0.00139     0.78009
      H   53    0.21592      0.00000     0.78270    0.00138     0.78408
      C   54   -0.33225      1.99886     4.30597    0.02743     6.33225
      C   55   -0.20553      1.99891     4.18593    0.02069     6.20553
      C   56   -0.19513      1.99887     4.17808    0.01818     6.19513
      C   57   -0.19915      1.99890     4.18295    0.01729     6.19915
      H   58    0.24199      0.00000     0.75598    0.00203     0.75801
      C   59   -0.19903      1.99891     4.18330    0.01683     6.19903
      H   60    0.24244      0.00000     0.75554    0.00202     0.75756
      C   61   -0.17333      1.99874     4.15614    0.01844     6.17333
      H   62    0.24138      0.00000     0.75638    0.00223     0.75862
      H   63    0.24229      0.00000     0.75550    0.00221     0.75771
      C   64   -0.33195      1.99891     4.30830    0.02473     6.33195
      C   65   -0.21964      1.99890     4.20279    0.01795     6.21964
      C   66   -0.21268      1.99891     4.19545    0.01832     6.21268
      C   67   -0.18958      1.99892     4.17378    0.01688     6.18958
      H   68    0.23520      0.00000     0.76270    0.00210     0.76480
      C   69   -0.18842      1.99892     4.17240    0.01711     6.18842
      H   70    0.23556      0.00000     0.76160    0.00284     0.76444
      C   71   -0.18936      1.99875     4.17197    0.01864     6.18936
      H   72    0.23924      0.00000     0.75856    0.00221     0.76076
      H   73    0.23702      0.00000     0.76077    0.00222     0.76298
      C   74    1.17853      1.99897     2.74867    0.07383     4.82147
      F   75   -0.37715      1.99989     7.37204    0.00522     9.37715
      F   76   -0.37577      1.99989     7.37055    0.00533     9.37577
      F   77   -0.37753      1.99989     7.37231    0.00533     9.37753
      C   78    1.18005      1.99897     2.74704    0.07394     4.81995
      F   79   -0.37553      1.99989     7.37034    0.00530     9.37553
      F   80   -0.37490      1.99989     7.36967    0.00534     9.37490
      F   81   -0.37344      1.99989     7.36821    0.00534     9.37344
 =======================================================================
   * Total *   -0.00000    117.95076   233.04513    1.00412   352.00000

 Normal termination of Gaussian 16 at Fri Sep 29 19:34:34 2023.
