 Gaussian 16, Revision C.02,
 Gaussian 16:  ES64L-G16RevC.02  7-Dec-2021

 ----------------------------------------------------------------------
 #p pop=nbo pbe1pbe/def2svpp empiricaldispersion=gd3bj integral=grid=ul
 trafinegrid scf=(xqc,maxconventionalcycles=90) nosymm
 ----------------------------------------------------------------------

 ----
 Cisa
 ----
 Symbolic Z-matrix:
 Charge =  0 Multiplicity = 1

                          Input orientation:
 ---------------------------------------------------------------------
 Center     Atomic      Atomic             Coordinates (Angstroms)
 Number     Number       Type             X           Y           Z
 ---------------------------------------------------------------------
      1          6           0       -3.537130   -0.782430   -1.256020
      2          6           0       -4.059780   -1.485690   -0.131380
      3          6           0       -5.004110   -0.640240    0.516270
      4          6           0       -5.063990    0.587110   -0.203590
      5          6           0       -4.160880    0.496130   -1.301190
      6          1           0       -2.790510   -1.157690   -1.955460
      7          1           0       -3.769200   -2.485330    0.189300
      8          1           0       -5.558200   -0.876400    1.425050
      9          1           0       -5.675340    1.452240    0.053930
     10          1           0       -3.978270    1.273190   -2.043520
     11         26           0       -3.161660    0.247050    0.477840
     12          6           0       -2.368120    1.997980    1.181580
     13          6           0       -1.359390    1.234600    0.518410
     14          6           0       -1.286500   -0.034210    1.191180
     15          6           0       -2.241340   -0.033930    2.262510
     16          6           0       -2.897570    1.225510    2.253510
     17          1           0       -2.711420    2.991380    0.896840
     18          1           0       -2.440740   -0.862790    2.939320
     19          1           0       -3.703660    1.529410    2.921150
     20          6           0       -0.520540    1.662760   -0.654820
     21          1           0       -0.505510    0.824410   -1.373050
     22         15           0       -0.005830   -1.229110    0.807320
     23          6           0       -1.170750    2.854750   -1.355830
     24          1           0       -0.736590    3.049090   -2.344790
     25          1           0       -2.236360    2.618410   -1.509330
     26          1           0       -1.116700    3.782160   -0.767710
     27         15           0        1.329480    1.741730   -0.186990
     28          6           0        2.162440    2.576650   -1.680810
     29          6           0        1.491890    2.798530    1.385300
     30          6           0        0.570880    4.019260    1.398740
     31          1           0       -0.490090    3.729720    1.399350
     32          1           0        0.753210    4.589650    2.328160
     33          1           0        0.755000    4.700970    0.554410
     34          6           0        2.940250    3.262960    1.559350
     35          1           0        3.036750    3.735210    2.553580
     36          1           0        3.653110    2.422830    1.525200
     37          1           0        3.237480    4.016610    0.814280
     38          6           0        1.151030    1.895620    2.580190
     39          1           0        1.315070    2.464730    3.513720
     40          1           0        0.102200    1.563560    2.571950
     41          1           0        1.802840    1.001330    2.603780
     42          6           0        1.715170    1.757030   -2.901460
     43          1           0        0.656420    1.906370   -3.161530
     44          1           0        2.313340    2.059000   -3.780000
     45          1           0        1.873950    0.675040   -2.737490
     46          6           0        3.690200    2.465940   -1.599420
     47          1           0        4.116310    2.975330   -0.724680
     48          1           0        4.038470    1.427500   -1.601310
     49          1           0        4.115080    2.952070   -2.496130
     50          6           0        1.840940    4.064820   -1.859460
     51          1           0        2.257160    4.398520   -2.827700
     52          1           0        0.770340    4.300470   -1.865110
     53          1           0        2.320630    4.675780   -1.077970
     54          6           0       -0.539190   -2.249270   -0.579320
     55          6           0       -1.185420   -3.448920   -0.715620
     56          8           0       -0.225510   -1.758060   -1.808790
     57          6           0       -1.277850   -3.696490   -2.118070
     58          1           0       -1.541400   -4.082860    0.093620
     59          6           0       -0.679800   -2.631980   -2.727530
     60          1           0       -1.729080   -4.557920   -2.608600
     61          1           0       -0.502400   -2.366680   -3.768080
     62          6           0       -0.042360   -2.357700    2.216780
     63          6           0       -0.061560   -2.105810    3.564970
     64          8           0        0.186760   -3.677530    2.005540
     65          6           0        0.148760   -3.362150    4.209960
     66          1           0       -0.198300   -1.134720    4.039040
     67          6           0        0.292030   -4.277140    3.208940
     68          1           0        0.182810   -3.557420    5.280830
     69          1           0        0.458610   -5.352480    3.191390
 ---------------------------------------------------------------------

 SCF Done:  E(RPBE1PBE) =  -3182.29922519     A.U. after   19 cycles

 Alpha  occ. eigenvalues -- -256.34939 -77.20306 -77.17053 -30.12412 -25.97265
 Alpha  occ. eigenvalues --  -25.95361 -25.95357 -19.28680 -19.28080 -10.28568
 Alpha  occ. eigenvalues --  -10.28543 -10.28490 -10.27762 -10.25452 -10.24805
 Alpha  occ. eigenvalues --  -10.24731 -10.24558 -10.24462 -10.24430 -10.24375
 Alpha  occ. eigenvalues --  -10.24225 -10.24016 -10.23966 -10.23935 -10.23674
 Alpha  occ. eigenvalues --  -10.23622 -10.23611 -10.23418 -10.23104 -10.22855
 Alpha  occ. eigenvalues --  -10.21877 -10.21636 -10.21457 -10.21276 -10.21056
 Alpha  occ. eigenvalues --  -10.21018 -10.20702  -6.61385  -6.57969  -4.75469
 Alpha  occ. eigenvalues --   -4.75412  -4.74877  -4.72037  -4.71996  -4.71454
 Alpha  occ. eigenvalues --   -3.45616  -2.24616  -2.19835  -2.19825  -1.14346
 Alpha  occ. eigenvalues --   -1.13892  -0.92245  -0.90247  -0.83596  -0.82128
 Alpha  occ. eigenvalues --   -0.81633  -0.81594  -0.80085  -0.79422  -0.76201
 Alpha  occ. eigenvalues --   -0.73958  -0.72779  -0.72645  -0.71859  -0.69819
 Alpha  occ. eigenvalues --   -0.69462  -0.68604  -0.68498  -0.66122  -0.65465
 Alpha  occ. eigenvalues --   -0.62349  -0.61739  -0.60669  -0.57333  -0.56997
 Alpha  occ. eigenvalues --   -0.56680  -0.55601  -0.55400  -0.55299  -0.55130
 Alpha  occ. eigenvalues --   -0.55004  -0.54026  -0.52900  -0.51252  -0.49640
 Alpha  occ. eigenvalues --   -0.48094  -0.47560  -0.47431  -0.46485  -0.45564
 Alpha  occ. eigenvalues --   -0.45370  -0.44902  -0.44128  -0.43886  -0.43487
 Alpha  occ. eigenvalues --   -0.43089  -0.42824  -0.42200  -0.42165  -0.41857
 Alpha  occ. eigenvalues --   -0.41828  -0.41368  -0.41017  -0.40651  -0.40300
 Alpha  occ. eigenvalues --   -0.39956  -0.39538  -0.39348  -0.39180  -0.39110
 Alpha  occ. eigenvalues --   -0.38967  -0.38345  -0.38037  -0.37970  -0.37387
 Alpha  occ. eigenvalues --   -0.37096  -0.36878  -0.36610  -0.36100  -0.35057
 Alpha  occ. eigenvalues --   -0.34226  -0.33377  -0.32936  -0.31326  -0.30203
 Alpha  occ. eigenvalues --   -0.29682  -0.29343  -0.28678  -0.28130  -0.27869
 Alpha  occ. eigenvalues --   -0.26348  -0.25616  -0.25026  -0.24279  -0.22166
 Alpha  occ. eigenvalues --   -0.21709  -0.21352  -0.17822
 Alpha virt. eigenvalues --   -0.00394  -0.00291   0.00103   0.00912   0.03027
 Alpha virt. eigenvalues --    0.04440   0.05450   0.05765   0.06470   0.06683
 Alpha virt. eigenvalues --    0.07016   0.07203   0.07589   0.08085   0.08794

 Mulliken charges:
               1
     1  C   -0.115076
     2  C   -0.082010
     3  C   -0.066922
     4  C   -0.082526
     5  C   -0.097097
     6  H    0.136686
     7  H    0.120063
     8  H    0.115984
     9  H    0.114915
    10  H    0.115231
    11  Fe  -0.221644
    12  C   -0.099859
    13  C   -0.042730
    14  C   -0.174912
    15  C   -0.092014
    16  C   -0.040544
    17  H    0.107238
    18  H    0.122933
    19  H    0.110122
    20  C   -0.337001
    21  H    0.168956
    22  P    0.423021
    23  C   -0.337975
    24  H    0.152257
    25  H    0.148125
    26  H    0.136545
    27  P    0.347607
    28  C   -0.422328
    29  C   -0.439775
    30  C   -0.291656
    31  H    0.154177
    32  H    0.107884
    33  H    0.130972
    34  C   -0.290470
    35  H    0.117551
    36  H    0.141118
    37  H    0.144008
    38  C   -0.314504
    39  H    0.113589
    40  H    0.194629
    41  H    0.146970
    42  C   -0.304051
    43  H    0.138495
    44  H    0.121247
    45  H    0.148461
    46  C   -0.271648
    47  H    0.128753
    48  H    0.131361
    49  H    0.115289
    50  C   -0.287772
    51  H    0.109489
    52  H    0.133670
    53  H    0.138432
    54  C    0.022490
    55  C   -0.164208
    56  O   -0.235295
    57  C   -0.145859
    58  H    0.118746
    59  C    0.037036
    60  H    0.111582
    61  H    0.122421
    62  C    0.005832
    63  C   -0.201888
    64  O   -0.234477
    65  C   -0.137259
    66  H    0.120301
    67  C    0.029613
    68  H    0.109040
    69  H    0.118661
 Sum of Mulliken charges =  -0.00000

 Dipole moment (field-independent basis, Debye):
    X=             -1.8324    Y=              0.3615    Z=              0.0544  Tot=              1.8685
 Quadrupole moment (field-independent basis, Debye-Ang):
   XX=           -223.2704   YY=           -208.4566   ZZ=           -207.5521
   XY=              0.3576   XZ=             -4.9924   YZ=             -2.3425

 Summary of Natural Population Analysis:

                                       Natural Population
                Natural  -----------------------------------------------
    Atom  No    Charge         Core      Valence    Rydberg      Total
 -----------------------------------------------------------------------
      C    1   -0.24003      1.99869     4.21746    0.02387     6.24003
      C    2   -0.23557      1.99868     4.21393    0.02297     6.23557
      C    3   -0.23607      1.99866     4.21470    0.02270     6.23607
      C    4   -0.24101      1.99867     4.21937    0.02298     6.24101
      C    5   -0.24504      1.99869     4.22301    0.02334     6.24504
      H    6    0.24609      0.00000     0.75056    0.00335     0.75391
      H    7    0.24897      0.00000     0.74969    0.00134     0.75103
      H    8    0.24608      0.00000     0.75278    0.00115     0.75392
      H    9    0.24548      0.00000     0.75338    0.00114     0.75452
      H   10    0.24268      0.00000     0.75598    0.00134     0.75732
     Fe   11    0.01704     17.99295     7.97215    0.01786    25.98296
      C   12   -0.24435      1.99866     4.22370    0.02199     6.24435
      C   13   -0.05767      1.99864     4.02851    0.03052     6.05767
      C   14   -0.39625      1.99852     4.36769    0.03004     6.39625
      C   15   -0.22345      1.99864     4.19899    0.02581     6.22345
      C   16   -0.22546      1.99866     4.20316    0.02363     6.22546
      H   17    0.25503      0.00000     0.74378    0.00118     0.74497
      H   18    0.26056      0.00000     0.73795    0.00149     0.73944
      H   19    0.24917      0.00000     0.74967    0.00116     0.75083
      C   20   -0.52587      1.99900     4.50380    0.02307     6.52587
      H   21    0.27575      0.00000     0.71986    0.00439     0.72425
      P   22    0.88183      9.99771     4.07058    0.04988    14.11817
      C   23   -0.62958      1.99926     4.61720    0.01312     6.62958
      H   24    0.21979      0.00000     0.77891    0.00130     0.78021
      H   25    0.21898      0.00000     0.77808    0.00294     0.78102
      H   26    0.21877      0.00000     0.77979    0.00144     0.78123
      P   27    0.76937      9.99830     4.19373    0.03860    14.23063
      C   28   -0.33805      1.99894     4.31875    0.02036     6.33805
      C   29   -0.33450      1.99893     4.31482    0.02076     6.33450
      C   30   -0.62811      1.99918     4.61389    0.01503     6.62811
      H   31    0.21731      0.00000     0.78056    0.00213     0.78269
      H   32    0.21067      0.00000     0.78664    0.00269     0.78933
      H   33    0.21731      0.00000     0.78126    0.00143     0.78269
      C   34   -0.63023      1.99922     4.61609    0.01492     6.63023
      H   35    0.21854      0.00000     0.77914    0.00232     0.78146
      H   36    0.22630      0.00000     0.77166    0.00204     0.77370
      H   37    0.21332      0.00000     0.78518    0.00150     0.78668
      C   38   -0.63036      1.99920     4.61549    0.01567     6.63036
      H   39    0.21334      0.00000     0.78455    0.00210     0.78666
      H   40    0.22149      0.00000     0.77416    0.00434     0.77851
      H   41    0.23090      0.00000     0.76742    0.00168     0.76910
      C   42   -0.63301      1.99922     4.61916    0.01463     6.63301
      H   43    0.21263      0.00000     0.78581    0.00156     0.78737
      H   44    0.21900      0.00000     0.77883    0.00217     0.78100
      H   45    0.23289      0.00000     0.76489    0.00222     0.76711
      C   46   -0.62043      1.99921     4.60601    0.01521     6.62043
      H   47    0.21915      0.00000     0.77950    0.00135     0.78085
      H   48    0.22495      0.00000     0.77321    0.00184     0.77505
      H   49    0.21325      0.00000     0.78466    0.00209     0.78675
      C   50   -0.62927      1.99920     4.61524    0.01484     6.62927
      H   51    0.21118      0.00000     0.78618    0.00264     0.78882
      H   52    0.21962      0.00000     0.77899    0.00139     0.78038
      H   53    0.21501      0.00000     0.78361    0.00139     0.78499
      C   54   -0.00195      1.99878     3.96374    0.03943     6.00195
      C   55   -0.29448      1.99887     4.27830    0.01731     6.29448
      O   56   -0.47380      1.99964     6.46314    0.01102     8.47380
      C   57   -0.32302      1.99896     4.30956    0.01449     6.32302
      H   58    0.24604      0.00000     0.75251    0.00145     0.75396
      C   59    0.12423      1.99891     3.84969    0.02718     5.87577
      H   60    0.23697      0.00000     0.76212    0.00091     0.76303
      H   61    0.20972      0.00000     0.78956    0.00072     0.79028
      C   62    0.00683      1.99880     3.95676    0.03760     5.99317
      C   63   -0.32470      1.99889     4.30974    0.01608     6.32470
      O   64   -0.47582      1.99964     6.46535    0.01083     8.47582
      C   65   -0.32200      1.99897     4.30845    0.01458     6.32200
      H   66    0.24116      0.00000     0.75787    0.00097     0.75884
      C   67    0.12146      1.99892     3.85280    0.02682     5.87854
      H   68    0.23501      0.00000     0.76414    0.00085     0.76499
      H   69    0.20619      0.00000     0.79310    0.00071     0.79381
 =======================================================================
   * Total *   -0.00000     97.95722   177.24092    0.80186   276.00000

 Normal termination of Gaussian 16 at Fri Sep 29 19:33:22 2023.
