 Gaussian 16, Revision C.01,
 Gaussian 16:  ES64L-G16RevC.01  3-Jul-2019

 ----------------------------------------------------------------------
 #p pop=nbo NMR pbe1pbe/def2svpp empiricaldispersion=gd3bj integral=gri
 d=ultrafinegrid scf=(xqc,maxconventionalcycles=90) nosymm
 ----------------------------------------------------------------------

 ----
 Cisa
 ----
 Symbolic Z-matrix:
 Charge =  0 Multiplicity = 1

                          Input orientation:
 ---------------------------------------------------------------------
 Center     Atomic      Atomic             Coordinates (Angstroms)
 Number     Number       Type             X           Y           Z
 ---------------------------------------------------------------------
      1          6           0       -5.032010    0.192350   -1.242530
      2          6           0       -5.077390    1.610120   -1.113830
      3          6           0       -4.035900    2.159560   -1.915560
      4          6           0       -3.339280    1.082500   -2.532450
      5          6           0       -3.965290   -0.130490   -2.123630
      6          1           0       -5.689610   -0.519700   -0.743460
      7          1           0       -5.772050    2.175910   -0.492620
      8          1           0       -3.807720    3.220380   -2.021950
      9          1           0       -2.487570    1.170170   -3.208240
     10          1           0       -3.683850   -1.133320   -2.438890
     11         26           0       -3.262730    0.922810   -0.479790
     12          6           0       -2.502640    2.229920    0.880560
     13          6           0       -1.445360    1.519080    0.235780
     14          6           0       -1.618410    0.110830    0.519940
     15          6           0       -2.832410   -0.001420    1.287120
     16          6           0       -3.353010    1.293920    1.526280
     17          1           0       -2.671070    3.304640    0.832860
     18          1           0       -3.278060   -0.925750    1.646700
     19          1           0       -4.271710    1.526140    2.064730
     20          6           0       -0.391650    2.162850   -0.622330
     21          1           0       -0.402670    1.648630   -1.600050
     22         15           0       -0.326320   -1.184330    0.423250
     23          6           0       -0.639550    3.647810   -0.875870
     24          1           0        0.085640    4.057690   -1.593270
     25          1           0       -1.648070    3.779510   -1.300480
     26          1           0       -0.572750    4.256550    0.038610
     27         15           0        1.315400    1.721780   -0.018090
     28          6           0        1.484960    2.175920    1.736870
     29          6           0        1.865060    2.771530    4.449480
     30          6           0        2.746660    1.910460    3.795090
     31          6           0        2.551110    1.606540    2.450870
     32          6           0        0.610090    3.043460    2.399800
     33          6           0        0.796260    3.331360    3.751240
     34          1           0        2.008770    3.002510    5.508810
     35          1           0        3.582100    1.460580    4.338730
     36          1           0        3.215370    0.893880    1.953640
     37          1           0       -0.236170    3.486780    1.875400
     38          1           0        0.098170    4.000910    4.261390
     39          6           0        2.391590    2.912810   -0.892430
     40          6           0        4.038360    4.685950   -2.308780
     41          6           0        4.142790    4.587470   -0.923660
     42          6           0        3.321070    3.708640   -0.215370
     43          6           0        2.295720    3.014600   -2.290120
     44          6           0        3.108580    3.899160   -2.992220
     45          1           0        4.679710    5.379160   -2.860250
     46          1           0        4.864960    5.205180   -0.382340
     47          1           0        3.401000    3.654800    0.873620
     48          1           0        1.574630    2.399020   -2.839780
     49          1           0        3.017810    3.975340   -4.079540
     50          6           0       -1.062530   -2.541350   -0.669330
     51          6           0       -2.533260   -2.846700   -0.382640
     52          1           0       -2.682600   -3.325920    0.595340
     53          1           0       -3.151340   -1.939410   -0.430940
     54          1           0       -2.903860   -3.550960   -1.150530
     55          6           0       -0.945450   -1.961580   -2.085550
     56          1           0       -1.484730   -1.003640   -2.157600
     57          1           0        0.101500   -1.770550   -2.371340
     58          1           0       -1.386800   -2.663290   -2.817250
     59          6           0       -0.255050   -3.835620   -0.546270
     60          1           0        0.830320   -3.676490   -0.603610
     61          1           0       -0.466650   -4.363300    0.396940
     62          1           0       -0.537880   -4.517220   -1.368990
     63          6           0       -0.178220   -1.759210    2.246690
     64          6           0       -1.251690   -2.745890    2.708400
     65          1           0       -2.270780   -2.339970    2.633700
     66          1           0       -1.213600   -3.704300    2.169270
     67          1           0       -1.074150   -2.968430    3.776460
     68          6           0        1.192110   -2.417890    2.421170
     69          1           0        1.290430   -3.339870    1.825150
     70          1           0        2.005840   -1.724460    2.145380
     71          1           0        1.324240   -2.698200    3.481870
     72          6           0       -0.227690   -0.524020    3.149770
     73          1           0        0.519490    0.228050    2.861580
     74          1           0       -1.216670   -0.041850    3.152980
     75          1           0       -0.001390   -0.839230    4.184390
 ---------------------------------------------------------------------

 SCF Done:  E(RPBE1PBE) =  -3186.71532418     A.U. after   18 cycles

      1  C    Isotropic =   125.5018   Anisotropy =    83.2289

      2  C    Isotropic =   127.8031   Anisotropy =    80.2458

      3  C    Isotropic =   124.0300   Anisotropy =    82.9709

      4  C    Isotropic =   121.9705   Anisotropy =    89.6262

      5  C    Isotropic =   115.2917   Anisotropy =    94.9863

      6  H    Isotropic =    28.3435   Anisotropy =     5.0981

      7  H    Isotropic =    28.4634   Anisotropy =     6.1669

      8  H    Isotropic =    28.0057   Anisotropy =     3.7130

      9  H    Isotropic =    28.7102   Anisotropy =     1.9789

     10  H    Isotropic =    28.5495   Anisotropy =     4.7162

     11  Fe   Isotropic = -5300.1772   Anisotropy =  9442.3552

     12  C    Isotropic =   123.5806   Anisotropy =    77.0792

     13  C    Isotropic =   104.4119   Anisotropy =    83.8160

     14  C    Isotropic =   115.6642   Anisotropy =    91.6012

     15  C    Isotropic =   114.0618   Anisotropy =    85.0080

     16  C    Isotropic =   124.8369   Anisotropy =    80.2780

     17  H    Isotropic =    27.8679   Anisotropy =     3.7543

     18  H    Isotropic =    28.0706   Anisotropy =     3.9979

     19  H    Isotropic =    28.1888   Anisotropy =     6.9530

     20  C    Isotropic =   161.3158   Anisotropy =    14.2721

     21  H    Isotropic =    27.7407   Anisotropy =     6.0838

     22  P    Isotropic =   407.1181   Anisotropy =    78.6523

     23  C    Isotropic =   174.9264   Anisotropy =     7.3639

     24  H    Isotropic =    30.0896   Anisotropy =     9.9722

     25  H    Isotropic =    29.9169   Anisotropy =     8.4491

     26  H    Isotropic =    30.4435   Anisotropy =     7.4196

     27  P    Isotropic =   411.4287   Anisotropy =    62.7697

     28  C    Isotropic =    60.0470   Anisotropy =   189.8008

     29  C    Isotropic =    66.3608   Anisotropy =   179.5054

     30  C    Isotropic =    66.3882   Anisotropy =   178.2064

     31  C    Isotropic =    57.2156   Anisotropy =   180.6102

     32  C    Isotropic =    59.8904   Anisotropy =   181.2969

     33  C    Isotropic =    65.8736   Anisotropy =   177.9651

     34  H    Isotropic =    24.9044   Anisotropy =     3.2033

     35  H    Isotropic =    24.7141   Anisotropy =     5.1312

     36  H    Isotropic =    24.4370   Anisotropy =     8.3578

     37  H    Isotropic =    24.3767   Anisotropy =    11.3946

     38  H    Isotropic =    24.9703   Anisotropy =     7.1069

     39  C    Isotropic =    51.5713   Anisotropy =   192.4807

     40  C    Isotropic =    70.1776   Anisotropy =   170.4626

     41  C    Isotropic =    66.3782   Anisotropy =   174.1518

     42  C    Isotropic =    65.7046   Anisotropy =   174.8079

     43  C    Isotropic =    65.8589   Anisotropy =   171.9089

     44  C    Isotropic =    67.2653   Anisotropy =   173.2315

     45  H    Isotropic =    25.1047   Anisotropy =     3.2973

     46  H    Isotropic =    25.0891   Anisotropy =     6.6193

     47  H    Isotropic =    25.5035   Anisotropy =    14.7106

     48  H    Isotropic =    24.6984   Anisotropy =    11.2497

     49  H    Isotropic =    24.7336   Anisotropy =     6.1571

     50  C    Isotropic =   161.4608   Anisotropy =    12.3137

     51  C    Isotropic =   163.3037   Anisotropy =    24.9924

     52  H    Isotropic =    30.1998   Anisotropy =     6.0413

     53  H    Isotropic =    28.3949   Anisotropy =     8.4895

     54  H    Isotropic =    30.8312   Anisotropy =     9.1192

     55  C    Isotropic =   158.7299   Anisotropy =    33.3268

     56  H    Isotropic =    29.0440   Anisotropy =     8.0807

     57  H    Isotropic =    30.1394   Anisotropy =     7.7833

     58  H    Isotropic =    30.9262   Anisotropy =     8.8702

     59  C    Isotropic =   161.8761   Anisotropy =    32.6651

     60  H    Isotropic =    30.4439   Anisotropy =     8.0270

     61  H    Isotropic =    30.4349   Anisotropy =     7.2987

     62  H    Isotropic =    30.5846   Anisotropy =    10.3076

     63  C    Isotropic =   160.3042   Anisotropy =    21.2917

     64  C    Isotropic =   160.6314   Anisotropy =    28.0212

     65  H    Isotropic =    30.5688   Anisotropy =     4.9223

     66  H    Isotropic =    30.4192   Anisotropy =     6.8431

     67  H    Isotropic =    31.3096   Anisotropy =    10.3861

     68  C    Isotropic =   157.6473   Anisotropy =    37.4764

     69  H    Isotropic =    30.5759   Anisotropy =     7.5056

     70  H    Isotropic =    30.4728   Anisotropy =     6.7762

     71  H    Isotropic =    31.3785   Anisotropy =    10.1891

     72  C    Isotropic =   161.7966   Anisotropy =    28.0137

     73  H    Isotropic =    33.0280   Anisotropy =    20.4361

     74  H    Isotropic =    32.5609   Anisotropy =     7.5274

     75  H    Isotropic =    32.6334   Anisotropy =     8.1304

 Alpha  occ. eigenvalues -- -256.35397 -77.18373 -77.17408 -30.12831 -25.97701
 Alpha  occ. eigenvalues --  -25.95817 -25.95737 -10.25654 -10.25151 -10.24575
 Alpha  occ. eigenvalues --  -10.24551 -10.24538 -10.24447 -10.24398 -10.24382
 Alpha  occ. eigenvalues --  -10.24361 -10.24345 -10.24316 -10.24271 -10.24263
 Alpha  occ. eigenvalues --  -10.24057 -10.24036 -10.24032 -10.23981 -10.23958
 Alpha  occ. eigenvalues --  -10.23940 -10.23896 -10.23411 -10.23292 -10.23090
 Alpha  occ. eigenvalues --  -10.22933 -10.22874 -10.22166 -10.21543 -10.21299
 Alpha  occ. eigenvalues --  -10.21251 -10.21034 -10.20794 -10.20167  -6.59425
 Alpha  occ. eigenvalues --   -6.58310  -4.73484  -4.73459  -4.72922  -4.72387
 Alpha  occ. eigenvalues --   -4.72318  -4.71818  -3.45977  -2.24946  -2.20260
 Alpha  occ. eigenvalues --   -2.20119  -0.92262  -0.90514  -0.87927  -0.86921
 Alpha  occ. eigenvalues --   -0.83281  -0.81556  -0.81467  -0.77421  -0.76450
 Alpha  occ. eigenvalues --   -0.75818  -0.75466  -0.73811  -0.73325  -0.73247
 Alpha  occ. eigenvalues --   -0.71839  -0.69634  -0.69393  -0.68593  -0.68361
 Alpha  occ. eigenvalues --   -0.66884  -0.63848  -0.62753  -0.62089  -0.61506
 Alpha  occ. eigenvalues --   -0.60860  -0.57166  -0.56727  -0.56252  -0.55831
 Alpha  occ. eigenvalues --   -0.55518  -0.54898  -0.54094  -0.53795  -0.52049
 Alpha  occ. eigenvalues --   -0.50543  -0.49972  -0.47839  -0.47216  -0.46759
 Alpha  occ. eigenvalues --   -0.46344  -0.45809  -0.45520  -0.45176  -0.44694
 Alpha  occ. eigenvalues --   -0.44591  -0.43850  -0.43789  -0.43550  -0.43271
 Alpha  occ. eigenvalues --   -0.42942  -0.42725  -0.42592  -0.42263  -0.41725
 Alpha  occ. eigenvalues --   -0.41489  -0.40645  -0.39925  -0.39857  -0.39760
 Alpha  occ. eigenvalues --   -0.39505  -0.39066  -0.38755  -0.38497  -0.38223
 Alpha  occ. eigenvalues --   -0.38157  -0.37794  -0.37256  -0.37049  -0.36809
 Alpha  occ. eigenvalues --   -0.36245  -0.35904  -0.35325  -0.34837  -0.34178
 Alpha  occ. eigenvalues --   -0.33659  -0.33376  -0.33068  -0.32874  -0.32244
 Alpha  occ. eigenvalues --   -0.29470  -0.28745  -0.28518  -0.27902  -0.27108
 Alpha  occ. eigenvalues --   -0.26526  -0.26361  -0.26156  -0.25783  -0.24740
 Alpha  occ. eigenvalues --   -0.22779  -0.21941  -0.21883  -0.17895
 Alpha virt. eigenvalues --   -0.02108  -0.01368  -0.00797  -0.00308   0.00002
 Alpha virt. eigenvalues --    0.00404   0.03133   0.03993   0.05643   0.06090
 Alpha virt. eigenvalues --    0.06295   0.06536   0.06830   0.07097   0.07377

 Mulliken charges:
               1
     1  C   -0.075980
     2  C   -0.080103
     3  C   -0.086648
     4  C   -0.105403
     5  C   -0.123578
     6  H    0.120642
     7  H    0.119222
     8  H    0.122892
     9  H    0.115023
    10  H    0.122866
    11  Fe  -0.224506
    12  C   -0.085896
    13  C   -0.047360
    14  C   -0.132062
    15  C   -0.165284
    16  C   -0.004693
    17  H    0.101940
    18  H    0.121716
    19  H    0.109971
    20  C   -0.339167
    21  H    0.166734
    22  P    0.349178
    23  C   -0.303436
    24  H    0.161895
    25  H    0.139653
    26  H    0.131743
    27  P    0.371674
    28  C   -0.188779
    29  C   -0.092414
    30  C   -0.081953
    31  C   -0.130692
    32  C   -0.102805
    33  C   -0.080630
    34  H    0.098996
    35  H    0.098556
    36  H    0.111068
    37  H    0.109063
    38  H    0.092069
    39  C   -0.087334
    40  C   -0.100577
    41  C   -0.077269
    42  C   -0.143421
    43  C   -0.149835
    44  C   -0.085365
    45  H    0.093355
    46  H    0.091767
    47  H    0.121127
    48  H    0.094650
    49  H    0.092520
    50  C   -0.429022
    51  C   -0.317441
    52  H    0.121526
    53  H    0.191757
    54  H    0.109900
    55  C   -0.308927
    56  H    0.172740
    57  H    0.137189
    58  H    0.120406
    59  C   -0.280106
    60  H    0.140042
    61  H    0.136283
    62  H    0.118618
    63  C   -0.439283
    64  C   -0.277285
    65  H    0.130052
    66  H    0.137834
    67  H    0.110295
    68  C   -0.269771
    69  H    0.126378
    70  H    0.138181
    71  H    0.115551
    72  C   -0.317920
    73  H    0.203558
    74  H    0.153931
    75  H    0.112389
 Sum of Mulliken charges =  -0.00000

 Dipole moment (field-independent basis, Debye):
    X=             -1.8706    Y=              0.9018    Z=              1.1377  Tot=              2.3679
 Quadrupole moment (field-independent basis, Debye-Ang):
   XX=           -230.1967   YY=           -226.6723   ZZ=           -225.1786
   XY=             -1.4971   XZ=             -1.5983   YZ=              1.8629

 Summary of Natural Population Analysis:

                                       Natural Population
                Natural  -----------------------------------------------
    Atom  No    Charge         Core      Valence    Rydberg      Total
 -----------------------------------------------------------------------
      C    1   -0.24484      1.99868     4.22311    0.02305     6.24484
      C    2   -0.23564      1.99865     4.21433    0.02266     6.23564
      C    3   -0.23828      1.99866     4.21693    0.02269     6.23828
      C    4   -0.25600      1.99870     4.23435    0.02296     6.25600
      C    5   -0.25024      1.99873     4.22851    0.02299     6.25024
      H    6    0.24846      0.00000     0.75038    0.00116     0.75154
      H    7    0.24655      0.00000     0.75227    0.00118     0.75345
      H    8    0.24465      0.00000     0.75408    0.00127     0.75535
      H    9    0.24639      0.00000     0.75240    0.00122     0.75361
      H   10    0.24907      0.00000     0.74919    0.00174     0.75093
     Fe   11    0.03659     17.99282     7.95427    0.01633    25.96341
      C   12   -0.22999      1.99862     4.20986    0.02151     6.22999
      C   13   -0.05570      1.99859     4.02623    0.03087     6.05570
      C   14   -0.39033      1.99866     4.35791    0.03376     6.39033
      C   15   -0.23745      1.99867     4.21357    0.02521     6.23745
      C   16   -0.21962      1.99864     4.19759    0.02340     6.21962
      H   17    0.25174      0.00000     0.74697    0.00129     0.74826
      H   18    0.24899      0.00000     0.74929    0.00171     0.75101
      H   19    0.24750      0.00000     0.75125    0.00125     0.75250
      C   20   -0.52497      1.99901     4.50417    0.02180     6.52497
      H   21    0.27286      0.00000     0.72409    0.00305     0.72714
      P   22    0.80722      9.99809     4.15382    0.04087    14.19278
      C   23   -0.62310      1.99926     4.61135    0.01249     6.62310
      H   24    0.23763      0.00000     0.76087    0.00150     0.76237
      H   25    0.21336      0.00000     0.78404    0.00260     0.78664
      H   26    0.21298      0.00000     0.78574    0.00128     0.78702
      P   27    0.85531      9.99808     4.10341    0.04319    14.14469
      C   28   -0.36219      1.99888     4.33782    0.02549     6.36219
      C   29   -0.21730      1.99895     4.20270    0.01566     6.21730
      C   30   -0.21831      1.99892     4.20336    0.01603     6.21831
      C   31   -0.21554      1.99889     4.19850    0.01815     6.21554
      C   32   -0.19942      1.99887     4.18181    0.01873     6.19942
      C   33   -0.21402      1.99893     4.19919    0.01590     6.21402
      H   34    0.22429      0.00000     0.77403    0.00168     0.77571
      H   35    0.22653      0.00000     0.77178    0.00169     0.77347
      H   36    0.23774      0.00000     0.76039    0.00187     0.76226
      H   37    0.22157      0.00000     0.77544    0.00299     0.77843
      H   38    0.22384      0.00000     0.77440    0.00176     0.77616
      C   39   -0.33616      1.99890     4.31217    0.02508     6.33616
      C   40   -0.23250      1.99895     4.21766    0.01590     6.23250
      C   41   -0.21118      1.99895     4.19635    0.01588     6.21118
      C   42   -0.21871      1.99888     4.20194    0.01789     6.21871
      C   43   -0.23335      1.99890     4.21633    0.01811     6.23335
      C   44   -0.21461      1.99893     4.19968    0.01599     6.21461
      H   45    0.22175      0.00000     0.77657    0.00168     0.77825
      H   46    0.22238      0.00000     0.77587    0.00175     0.77762
      H   47    0.23152      0.00000     0.76585    0.00263     0.76848
      H   48    0.22208      0.00000     0.77586    0.00206     0.77792
      H   49    0.22298      0.00000     0.77532    0.00171     0.77702
      C   50   -0.33065      1.99893     4.31014    0.02158     6.33065
      C   51   -0.63362      1.99917     4.61917    0.01529     6.63362
      H   52    0.21806      0.00000     0.78059    0.00134     0.78194
      H   53    0.22073      0.00000     0.77470    0.00456     0.77927
      H   54    0.20940      0.00000     0.78807    0.00252     0.79060
      C   55   -0.63253      1.99919     4.61814    0.01520     6.63253
      H   56    0.21708      0.00000     0.77857    0.00435     0.78292
      H   57    0.22995      0.00000     0.76837    0.00168     0.77005
      H   58    0.21437      0.00000     0.78355    0.00208     0.78563
      C   59   -0.62679      1.99921     4.61304    0.01454     6.62679
      H   60    0.22397      0.00000     0.77408    0.00195     0.77603
      H   61    0.21410      0.00000     0.78458    0.00132     0.78590
      H   62    0.21800      0.00000     0.77974    0.00226     0.78200
      C   63   -0.32317      1.99893     4.30316    0.02108     6.32317
      C   64   -0.62494      1.99919     4.61071    0.01503     6.62494
      H   65    0.21232      0.00000     0.78628    0.00141     0.78768
      H   66    0.21238      0.00000     0.78610    0.00152     0.78762
      H   67    0.21465      0.00000     0.78278    0.00258     0.78535
      C   68   -0.62389      1.99920     4.61000    0.01469     6.62389
      H   69    0.21643      0.00000     0.78214    0.00144     0.78357
      H   70    0.22725      0.00000     0.77113    0.00162     0.77275
      H   71    0.21361      0.00000     0.78429    0.00211     0.78639
      C   72   -0.62608      1.99917     4.61145    0.01546     6.62608
      H   73    0.22468      0.00000     0.76913    0.00619     0.77532
      H   74    0.22474      0.00000     0.77323    0.00203     0.77526
      H   75    0.21543      0.00000     0.78250    0.00208     0.78457
 =======================================================================
   * Total *   -0.00000    101.95381   185.22863    0.81757   288.00000

 1\1\GINC-TCN95\SP\RPBE1PBE\def2SVPP\C32H40Fe1P2\ADARSH\12-Aug-2023\0\\
 #p pop=nbo NMR pbe1pbe/def2svpp empiricaldispersion=gd3bj integral=gri
 d=ultrafinegrid scf=(xqc,maxconventionalcycles=90) nosymm\\Cisa\\0,1\C
 ,0,-5.03201,0.19235,-1.24253\C,0,-5.07739,1.61012,-1.11383\C,0,-4.0359
 ,2.15956,-1.91556\C,0,-3.33928,1.0825,-2.53245\C,0,-3.96529,-0.13049,-
 2.12363\H,0,-5.68961,-0.5197,-0.74346\H,0,-5.77205,2.17591,-0.49262\H,
 0,-3.80772,3.22038,-2.02195\H,0,-2.48757,1.17017,-3.20824\H,0,-3.68385
 ,-1.13332,-2.43889\Fe,0,-3.26273,0.92281,-0.47979\C,0,-2.50264,2.22992

 Normal termination of Gaussian 16 at Sat Aug 12 03:00:58 2023.
