 Gaussian 16, Revision C.01,
 Gaussian 16:  ES64L-G16RevC.01  3-Jul-2019

 ----------------------------------------------------------------------
 #p pop=nbo NMR pbe1pbe/def2svpp empiricaldispersion=gd3bj integral=gri
 d=ultrafinegrid scf=(xqc,maxconventionalcycles=90) nosymm
 ----------------------------------------------------------------------

 ----
 Cisa
 ----
 Symbolic Z-matrix:
 Charge =  0 Multiplicity = 1

                          Input orientation:
 ---------------------------------------------------------------------
 Center     Atomic      Atomic             Coordinates (Angstroms)
 Number     Number       Type             X           Y           Z
 ---------------------------------------------------------------------
      1         15           0       12.362440    2.479470    8.273480
      2         15           0       12.572340    5.170370    6.003230
      3         26           0       13.538880    1.993450    5.046900
      4          6           0       14.756480    3.581050    4.672840
      5          6           0       12.048230    0.860290    5.820850
      6          6           0       13.378780    4.012740    4.829650
      7          6           0       12.866430    1.418640    6.878570
      8          6           0       14.209290    0.961140    6.687740
      9          6           0       12.607590    3.325420    3.831810
     10          6           0       14.239950    0.133920    5.538100
     11          6           0       13.470630    2.501390    3.069720
     12          6           0       12.922030    0.063360    5.014250
     13          6           0       14.782620    2.659190    3.579610
     14          1           0       11.530440    3.374630    3.705450
     15          1           0       13.159490    1.829980    2.269670
     16          1           0       15.666620    2.126870    3.234800
     17          1           0       15.063510    1.207030    7.312280
     18          1           0       15.129320   -0.332950    5.115180
     19          1           0       12.643990   -0.463070    4.104830
     20          6           0       15.997300    4.074340    5.375810
     21          6           0       17.117280    3.039480    5.354900
     22          6           0       17.882340    2.821530    4.201490
     23          6           0       17.441600    2.317700    6.505950
     24          6           0       18.909200    1.879370    4.191450
     25          1           0       17.680070    3.399770    3.296040
     26          6           0       18.464820    1.370050    6.502390
     27          1           0       16.891870    2.505190    7.432460
     28          6           0       19.198350    1.141710    5.339860
     29          1           0       19.493400    1.724480    3.279580
     30          1           0       18.695320    0.815410    7.416880
     31          1           0       20.004800    0.402910    5.331650
     32          6           0       10.556440    1.040150    5.647670
     33          6           0       10.085670    1.090950    4.197560
     34          6           0       10.217080    0.013830    3.309850
     35          6           0        9.395160    2.222940    3.750210
     36          6           0        9.719560    0.090600    2.009160
     37          1           0       10.699910   -0.911610    3.628350
     38          6           0        8.897630    2.307330    2.451070
     39          1           0        9.242950    3.060540    4.437610
     40          6           0        9.066550    1.241530    1.569420
     41          1           0        9.838440   -0.762730    1.334880
     42          1           0        8.369120    3.210430    2.131740
     43          1           0        8.677450    1.299100    0.548830
     44          1           0       15.733720    4.215520    6.445770
     45          7           0       16.394350    5.380410    4.880730
     46          6           0       16.174550    5.767090    3.514550
     47          1           0       15.191720    5.414510    3.166120
     48          1           0       16.168160    6.871490    3.457590
     49          1           0       16.946150    5.403800    2.798850
     50          6           0       17.600000    5.896720    5.463190
     51          1           0       18.529930    5.434530    5.065840
     52          1           0       17.658200    6.984730    5.283090
     53          1           0       17.593600    5.729290    6.556620
     54          1           0       10.320630    2.035820    6.071170
     55          7           0        9.803840    0.094710    6.464750
     56          6           0        8.385990    0.347890    6.450590
     57          1           0        7.896260    0.086220    5.485560
     58          1           0        7.903370   -0.236940    7.251600
     59          1           0        8.192300    1.416450    6.649480
     60          6           0       10.113740   -1.306000    6.354280
     61          1           0        9.683300   -1.834880    7.223650
     62          1           0        9.705240   -1.792560    5.439970
     63          1           0       11.204010   -1.463670    6.377970
     64          6           0       10.898270    5.354430    5.279550
     65          6           0        8.306640    5.727970    4.271440
     66          6           0        9.414810    5.903290    3.439810
     67          6           0       10.701630    5.717170    3.937920
     68          6           0        9.779500    5.167600    6.100230
     69          6           0        8.490150    5.354220    5.601380
     70          1           0        7.297130    5.876270    3.877420
     71          1           0        9.276130    6.187240    2.392740
     72          1           0       11.559940    5.848840    3.272960
     73          1           0        9.935240    4.871010    7.144090
     74          1           0        7.626200    5.202620    6.254580
     75          6           0       13.365380    6.803910    5.735390
     76          6           0       14.618700    9.311660    5.578630
     77          6           0       13.361310    9.120920    5.010910
     78          6           0       12.734450    7.876920    5.094910
     79          6           0       14.624890    7.011420    6.317930
     80          6           0       15.243900    8.256540    6.243710
     81          1           0       15.105830   10.289290    5.520630
     82          1           0       12.853240    9.947330    4.506100
     83          1           0       11.736260    7.760750    4.668960
     84          1           0       15.097580    6.208900    6.888810
     85          1           0       16.217270    8.406800    6.718560
     86          6           0       13.744850    2.280300    9.466860
     87          6           0       15.875320    2.323640   11.295290
     88          6           0       15.979080    3.014050   10.085510
     89          6           0       14.918180    2.999610    9.185780
     90          6           0       13.641850    1.608170   10.687970
     91          6           0       14.705050    1.629970   11.594420
     92          1           0       16.703790    2.337930   12.009110
     93          1           0       16.886830    3.576700    9.848140
     94          1           0       14.984450    3.577060    8.257940
     95          1           0       12.724590    1.078290   10.953530
     96          1           0       14.610360    1.099700   12.546360
     97          6           0       10.959290    1.558820    8.978030
     98          6           0        8.819120    0.125860   10.065110
     99          6           0       10.051390   -0.500660    9.869790
    100          6           0       11.112130    0.206760    9.314290
    101          6           0        9.712300    2.167580    9.138790
    102          6           0        8.645850    1.454760    9.684940
    103          1           0        7.985020   -0.431740   10.501000
    104          1           0       10.181830   -1.552130   10.141420
    105          1           0       12.064040   -0.300000    9.128240
    106          1           0        9.569020    3.202090    8.814130
    107          1           0        7.672150    1.937980    9.805910
 ---------------------------------------------------------------------

 SCF Done:  E(RPBE1PBE) =  -4062.74477776     A.U. after   19 cycles

      1  P    Isotropic =   441.9015   Anisotropy =    62.9597

      2  P    Isotropic =   434.5343   Anisotropy =   106.9036

      3  Fe   Isotropic = -4562.4974   Anisotropy =  8073.3009

      4  C    Isotropic =   106.9619   Anisotropy =    81.5491

      5  C    Isotropic =   111.8203   Anisotropy =    78.3258

      6  C    Isotropic =   112.7228   Anisotropy =    75.5764

      7  C    Isotropic =   110.7395   Anisotropy =    84.0517

      8  C    Isotropic =   119.6794   Anisotropy =    81.0697

      9  C    Isotropic =   115.4065   Anisotropy =    73.4788

     10  C    Isotropic =   123.9094   Anisotropy =    81.5745

     11  C    Isotropic =   124.2186   Anisotropy =    80.9791

     12  C    Isotropic =   120.9263   Anisotropy =    75.4559

     13  C    Isotropic =   120.1298   Anisotropy =    80.1518

     14  H    Isotropic =    29.1069   Anisotropy =     6.9999

     15  H    Isotropic =    29.2294   Anisotropy =     5.8457

     16  H    Isotropic =    28.7537   Anisotropy =     9.0714

     17  H    Isotropic =    28.2199   Anisotropy =     5.2390

     18  H    Isotropic =    29.1391   Anisotropy =     6.4044

     19  H    Isotropic =    28.3553   Anisotropy =     6.7610

     20  C    Isotropic =   128.4909   Anisotropy =    31.0427

     21  C    Isotropic =    51.8703   Anisotropy =   183.1235

     22  C    Isotropic =    65.3996   Anisotropy =   172.7885

     23  C    Isotropic =    64.7138   Anisotropy =   164.3784

     24  C    Isotropic =    67.5569   Anisotropy =   174.0035

     25  H    Isotropic =    24.5327   Anisotropy =    11.5420

     26  C    Isotropic =    66.3826   Anisotropy =   175.2303

     27  H    Isotropic =    23.9286   Anisotropy =     6.3883

     28  C    Isotropic =    68.1595   Anisotropy =   174.8312

     29  H    Isotropic =    24.6920   Anisotropy =     6.0110

     30  H    Isotropic =    24.7325   Anisotropy =     8.0138

     31  H    Isotropic =    24.8140   Anisotropy =     3.9786

     32  C    Isotropic =   130.0112   Anisotropy =    29.8319

     33  C    Isotropic =    55.8122   Anisotropy =   185.8159

     34  C    Isotropic =    67.2979   Anisotropy =   169.2216

     35  C    Isotropic =    63.2062   Anisotropy =   164.0842

     36  C    Isotropic =    67.7722   Anisotropy =   173.0876

     37  H    Isotropic =    24.7539   Anisotropy =    10.6127

     38  C    Isotropic =    66.3877   Anisotropy =   172.2979

     39  H    Isotropic =    27.0130   Anisotropy =     9.9910

     40  C    Isotropic =    68.7503   Anisotropy =   173.8003

     41  H    Isotropic =    24.9084   Anisotropy =     5.9608

     42  H    Isotropic =    25.1454   Anisotropy =     9.7185

     43  H    Isotropic =    25.0210   Anisotropy =     4.6096

     44  H    Isotropic =    26.6515   Anisotropy =     5.0746

     45  N    Isotropic =   233.7535   Anisotropy =    68.3203

     46  C    Isotropic =   154.5920   Anisotropy =    42.8332

     47  H    Isotropic =    30.4742   Anisotropy =     6.7480

     48  H    Isotropic =    31.0356   Anisotropy =     7.9464

     49  H    Isotropic =    30.0648   Anisotropy =    12.0404

     50  C    Isotropic =   150.2440   Anisotropy =    46.0230

     51  H    Isotropic =    29.9739   Anisotropy =     8.5543

     52  H    Isotropic =    29.8743   Anisotropy =    10.2319

     53  H    Isotropic =    29.8144   Anisotropy =     7.7934

     54  H    Isotropic =    28.2657   Anisotropy =     5.1212

     55  N    Isotropic =   229.6648   Anisotropy =    50.3995

     56  C    Isotropic =   147.4357   Anisotropy =    42.6761

     57  H    Isotropic =    31.3478   Anisotropy =     7.4377

     58  H    Isotropic =    30.9799   Anisotropy =     7.7559

     59  H    Isotropic =    30.8259   Anisotropy =     4.0475

     60  C    Isotropic =   155.8441   Anisotropy =    40.7566

     61  H    Isotropic =    30.7851   Anisotropy =     9.2708

     62  H    Isotropic =    30.5197   Anisotropy =    11.2460

     63  H    Isotropic =    30.0619   Anisotropy =     6.7454

     64  C    Isotropic =    56.6703   Anisotropy =   193.9963

     65  C    Isotropic =    64.1925   Anisotropy =   182.2891

     66  C    Isotropic =    65.7825   Anisotropy =   178.4188

     67  C    Isotropic =    49.5428   Anisotropy =   193.3059

     68  C    Isotropic =    55.6157   Anisotropy =   177.4713

     69  C    Isotropic =    65.9962   Anisotropy =   176.9279

     70  H    Isotropic =    24.2352   Anisotropy =     3.4695

     71  H    Isotropic =    24.2385   Anisotropy =     5.2342

     72  H    Isotropic =    23.7198   Anisotropy =    11.5350

     73  H    Isotropic =    23.1814   Anisotropy =     8.3396

     74  H    Isotropic =    24.1958   Anisotropy =     6.2898

     75  C    Isotropic =    60.7005   Anisotropy =   181.0377

     76  C    Isotropic =    68.5586   Anisotropy =   172.4159

     77  C    Isotropic =    69.4042   Anisotropy =   168.0268

     78  C    Isotropic =    63.4204   Anisotropy =   176.0032

     79  C    Isotropic =    55.9882   Anisotropy =   180.9899

     80  C    Isotropic =    71.2480   Anisotropy =   166.9499

     81  H    Isotropic =    24.9997   Anisotropy =     4.3608

     82  H    Isotropic =    25.1191   Anisotropy =     6.7297

     83  H    Isotropic =    24.8504   Anisotropy =    14.9859

     84  H    Isotropic =    24.2324   Anisotropy =     8.3116

     85  H    Isotropic =    24.7645   Anisotropy =     7.7220

     86  C    Isotropic =    55.9460   Anisotropy =   185.2448

     87  C    Isotropic =    67.8050   Anisotropy =   173.9443

     88  C    Isotropic =    67.2053   Anisotropy =   172.7275

     89  C    Isotropic =    58.3091   Anisotropy =   174.5667

     90  C    Isotropic =    63.8025   Anisotropy =   179.9265

     91  C    Isotropic =    65.8905   Anisotropy =   174.3842

     92  H    Isotropic =    24.6884   Anisotropy =     4.5835

     93  H    Isotropic =    24.2123   Anisotropy =     8.1659

     94  H    Isotropic =    23.2049   Anisotropy =     7.6914

     95  H    Isotropic =    24.6105   Anisotropy =    14.0221

     96  H    Isotropic =    24.7245   Anisotropy =     6.2657

     97  C    Isotropic =    58.4428   Anisotropy =   196.5372

     98  C    Isotropic =    65.0216   Anisotropy =   181.0103

     99  C    Isotropic =    67.4827   Anisotropy =   175.5594

    100  C    Isotropic =    50.7058   Anisotropy =   190.7362

    101  C    Isotropic =    58.7569   Anisotropy =   170.3634

    102  C    Isotropic =    65.7542   Anisotropy =   177.2770

    103  H    Isotropic =    24.6842   Anisotropy =     3.1027

    104  H    Isotropic =    24.6461   Anisotropy =     6.2534

    105  H    Isotropic =    24.1493   Anisotropy =    12.3445

    106  H    Isotropic =    23.7886   Anisotropy =     8.6118

    107  H    Isotropic =    24.5682   Anisotropy =     6.0746

 Alpha  occ. eigenvalues -- -256.34731 -77.19044 -77.18970 -30.12210 -25.97000
 Alpha  occ. eigenvalues --  -25.95218 -25.95163 -14.37907 -14.37534 -10.27152
 Alpha  occ. eigenvalues --  -10.26542 -10.25033 -10.24979 -10.24908 -10.24841
 Alpha  occ. eigenvalues --  -10.24689 -10.24641 -10.24641 -10.24562 -10.24557
 Alpha  occ. eigenvalues --  -10.24529 -10.24421 -10.24128 -10.23942 -10.23909
 Alpha  occ. eigenvalues --  -10.23880 -10.23879 -10.23869 -10.23831 -10.23805
 Alpha  occ. eigenvalues --  -10.23655 -10.23637 -10.23633 -10.23607 -10.23603
 Alpha  occ. eigenvalues --  -10.23602 -10.23551 -10.23534 -10.23520 -10.23511
 Alpha  occ. eigenvalues --  -10.23506 -10.23502 -10.23499 -10.23466 -10.23461
 Alpha  occ. eigenvalues --  -10.23425 -10.23415 -10.23362 -10.23352 -10.23327
 Alpha  occ. eigenvalues --  -10.23309 -10.23305 -10.23294 -10.23177 -10.23091
 Alpha  occ. eigenvalues --  -10.22969 -10.22911 -10.22761 -10.22666 -10.22588
 Alpha  occ. eigenvalues --  -10.22555  -6.59971  -6.59933  -4.74041  -4.74000
 Alpha  occ. eigenvalues --   -4.73992  -4.73969  -4.73491  -4.73458  -3.45340
 Alpha  occ. eigenvalues --   -2.24247  -2.19648  -2.19577  -0.94811  -0.94436
 Alpha  occ. eigenvalues --   -0.91397  -0.89669  -0.88442  -0.87747  -0.87384
 Alpha  occ. eigenvalues --   -0.87233  -0.87115  -0.86482  -0.79353  -0.78950
 Alpha  occ. eigenvalues --   -0.78626  -0.78466  -0.77076  -0.76402  -0.76200
 Alpha  occ. eigenvalues --   -0.76043  -0.75907  -0.75698  -0.75660  -0.75129
 Alpha  occ. eigenvalues --   -0.74404  -0.74197  -0.73025  -0.72977  -0.71575
 Alpha  occ. eigenvalues --   -0.71173  -0.69108  -0.68825  -0.65623  -0.65440
 Alpha  occ. eigenvalues --   -0.62788  -0.62394  -0.62262  -0.62035  -0.61875
 Alpha  occ. eigenvalues --   -0.61701  -0.61529  -0.61346  -0.60982  -0.60639
 Alpha  occ. eigenvalues --   -0.58973  -0.58798  -0.58612  -0.58108  -0.56123
 Alpha  occ. eigenvalues --   -0.55882  -0.54177  -0.53970  -0.53651  -0.53114
 Alpha  occ. eigenvalues --   -0.53100  -0.52634  -0.51811  -0.51378  -0.50267
 Alpha  occ. eigenvalues --   -0.49720  -0.49528  -0.49103  -0.47897  -0.47707
 Alpha  occ. eigenvalues --   -0.47606  -0.47152  -0.46691  -0.46620  -0.46428
 Alpha  occ. eigenvalues --   -0.46211  -0.46022  -0.45937  -0.45744  -0.45681
 Alpha  occ. eigenvalues --   -0.45517  -0.45412  -0.45228  -0.45102  -0.44318
 Alpha  occ. eigenvalues --   -0.43865  -0.43512  -0.43420  -0.43125  -0.42879
 Alpha  occ. eigenvalues --   -0.42572  -0.42280  -0.42177  -0.42044  -0.41785
 Alpha  occ. eigenvalues --   -0.41096  -0.40959  -0.40475  -0.40017  -0.39619
 Alpha  occ. eigenvalues --   -0.39400  -0.39217  -0.38959  -0.38747  -0.38491
 Alpha  occ. eigenvalues --   -0.38444  -0.38217  -0.37924  -0.37649  -0.37570
 Alpha  occ. eigenvalues --   -0.37489  -0.37383  -0.37010  -0.36734  -0.36654
 Alpha  occ. eigenvalues --   -0.36488  -0.36239  -0.35990  -0.35731  -0.35605
 Alpha  occ. eigenvalues --   -0.35381  -0.35153  -0.34979  -0.34653  -0.34538
 Alpha  occ. eigenvalues --   -0.34374  -0.33076  -0.32991  -0.30169  -0.29323
 Alpha  occ. eigenvalues --   -0.27978  -0.27655  -0.27575  -0.27221  -0.27029
 Alpha  occ. eigenvalues --   -0.26813  -0.26659  -0.26483  -0.26395  -0.26383
 Alpha  occ. eigenvalues --   -0.26143  -0.25784  -0.25775  -0.24766  -0.24102
 Alpha  occ. eigenvalues --   -0.22797  -0.21563  -0.20966  -0.20688  -0.20486
 Alpha  occ. eigenvalues --   -0.18937
 Alpha virt. eigenvalues --   -0.02991  -0.02252  -0.01413  -0.01133  -0.00866
 Alpha virt. eigenvalues --   -0.00617  -0.00492  -0.00414  -0.00240  -0.00138
 Alpha virt. eigenvalues --   -0.00060   0.00590   0.00734   0.01109   0.03342

 Mulliken charges:
               1
     1  P    0.388794
     2  P    0.422756
     3  Fe  -0.273961
     4  C   -0.148204
     5  C   -0.069464
     6  C   -0.095497
     7  C   -0.118681
     8  C   -0.122161
     9  C   -0.161819
    10  C   -0.029986
    11  C   -0.009542
    12  C   -0.064458
    13  C   -0.068327
    14  H    0.179530
    15  H    0.115633
    16  H    0.126694
    17  H    0.125857
    18  H    0.118055
    19  H    0.110607
    20  C    0.065782
    21  C    0.049215
    22  C   -0.165061
    23  C   -0.163580
    24  C   -0.091110
    25  H    0.102578
    26  C   -0.099698
    27  H    0.111949
    28  C   -0.092120
    29  H    0.091699
    30  H    0.092383
    31  H    0.095299
    32  C    0.051247
    33  C    0.050302
    34  C   -0.160156
    35  C   -0.185547
    36  C   -0.089672
    37  H    0.106813
    38  C   -0.095721
    39  H    0.139982
    40  C   -0.090695
    41  H    0.090215
    42  H    0.089322
    43  H    0.093103
    44  H    0.107490
    45  N   -0.376917
    46  C   -0.227773
    47  H    0.175907
    48  H    0.131766
    49  H    0.103133
    50  C   -0.208472
    51  H    0.116763
    52  H    0.132192
    53  H    0.118370
    54  H    0.104104
    55  N   -0.354330
    56  C   -0.202262
    57  H    0.113273
    58  H    0.128646
    59  H    0.120053
    60  C   -0.236189
    61  H    0.125760
    62  H    0.104864
    63  H    0.157593
    64  C   -0.197954
    65  C   -0.094550
    66  C   -0.084424
    67  C   -0.134031
    68  C   -0.120007
    69  C   -0.102780
    70  H    0.102626
    71  H    0.099736
    72  H    0.128476
    73  H    0.129286
    74  H    0.100232
    75  C   -0.095458
    76  C   -0.092745
    77  C   -0.089878
    78  C   -0.154183
    79  C   -0.059470
    80  C   -0.113559
    81  H    0.090713
    82  H    0.087733
    83  H    0.115145
    84  H    0.090189
    85  H    0.091586
    86  C   -0.107672
    87  C   -0.095377
    88  C   -0.084250
    89  C   -0.192889
    90  C   -0.155174
    91  C   -0.079534
    92  H    0.097028
    93  H    0.099238
    94  H    0.159725
    95  H    0.119270
    96  H    0.095062
    97  C   -0.107065
    98  C   -0.095749
    99  C   -0.082414
   100  C   -0.104157
   101  C   -0.129386
   102  C   -0.091343
   103  H    0.096564
   104  H    0.092995
   105  H    0.116256
   106  H    0.103805
   107  H    0.092063
 Sum of Mulliken charges =  -0.00000

 Dipole moment (field-independent basis, Debye):
    X=             -0.5955    Y=             -1.6622    Z=             -1.5475  Tot=              2.3478
 Quadrupole moment (field-independent basis, Debye-Ang):
   XX=           -346.3401   YY=           -358.5659   ZZ=           -362.1338
   XY=            -25.9937   XZ=            -20.4664   YZ=            -23.5298

 Summary of Natural Population Analysis:

                                       Natural Population
                Natural  -----------------------------------------------
    Atom  No    Charge         Core      Valence    Rydberg      Total
 -----------------------------------------------------------------------
      P    1    0.86959      9.99792     4.08857    0.04393    14.13041
      P    2    0.86399      9.99797     4.09435    0.04369    14.13601
     Fe    3    0.02038     17.99211     7.96749    0.02002    25.97962
      C    4   -0.07562      1.99856     4.04422    0.03284     6.07562
      C    5   -0.05832      1.99853     4.02662    0.03317     6.05832
      C    6   -0.35033      1.99854     4.32022    0.03157     6.35033
      C    7   -0.35538      1.99854     4.32435    0.03248     6.35538
      C    8   -0.22563      1.99866     4.20192    0.02505     6.22563
      C    9   -0.22936      1.99865     4.20573    0.02498     6.22936
      C   10   -0.21920      1.99865     4.19660    0.02394     6.21920
      C   11   -0.21369      1.99863     4.19143    0.02363     6.21369
      C   12   -0.22407      1.99862     4.20361    0.02184     6.22407
      C   13   -0.22218      1.99862     4.20154    0.02202     6.22218
      H   14    0.25798      0.00000     0.73744    0.00458     0.74202
      H   15    0.25184      0.00000     0.74683    0.00133     0.74816
      H   16    0.25616      0.00000     0.74217    0.00167     0.74384
      H   17    0.25250      0.00000     0.74497    0.00253     0.74750
      H   18    0.25175      0.00000     0.74697    0.00129     0.74825
      H   19    0.24969      0.00000     0.74879    0.00153     0.75031
      C   20   -0.03619      1.99889     4.00835    0.02895     6.03619
      C   21   -0.04820      1.99885     4.02745    0.02190     6.04820
      C   22   -0.23251      1.99888     4.21681    0.01681     6.23251
      C   23   -0.21615      1.99886     4.20024    0.01705     6.21615
      C   24   -0.21456      1.99893     4.19974    0.01589     6.21456
      H   25    0.22889      0.00000     0.76918    0.00193     0.77111
      C   26   -0.21412      1.99893     4.19944    0.01574     6.21412
      H   27    0.22014      0.00000     0.77630    0.00356     0.77986
      C   28   -0.22676      1.99895     4.21228    0.01553     6.22676
      H   29    0.22347      0.00000     0.77484    0.00169     0.77653
      H   30    0.22485      0.00000     0.77342    0.00173     0.77515
      H   31    0.22302      0.00000     0.77532    0.00166     0.77698
      C   32   -0.04887      1.99891     4.02080    0.02915     6.04887
      C   33   -0.04939      1.99886     4.02905    0.02148     6.04939
      C   34   -0.22799      1.99889     4.21236    0.01674     6.22799
      C   35   -0.22606      1.99887     4.20992    0.01727     6.22606
      C   36   -0.21557      1.99894     4.20075    0.01588     6.21557
      H   37    0.22250      0.00000     0.77535    0.00215     0.77750
      C   38   -0.21161      1.99892     4.19695    0.01575     6.21161
      H   39    0.22960      0.00000     0.76584    0.00456     0.77040
      C   40   -0.22728      1.99894     4.21274    0.01560     6.22728
      H   41    0.22247      0.00000     0.77583    0.00170     0.77753
      H   42    0.22322      0.00000     0.77490    0.00188     0.77678
      H   43    0.22213      0.00000     0.77621    0.00166     0.77787
      H   44    0.22322      0.00000     0.77276    0.00402     0.77678
      N   45   -0.54435      1.99922     5.53286    0.01227     7.54435
      C   46   -0.39337      1.99932     4.37982    0.01424     6.39337
      H   47    0.22099      0.00000     0.77683    0.00218     0.77901
      H   48    0.21186      0.00000     0.78619    0.00195     0.78814
      H   49    0.16849      0.00000     0.82780    0.00371     0.83151
      C   50   -0.40129      1.99934     4.38738    0.01458     6.40129
      H   51    0.18889      0.00000     0.80723    0.00388     0.81111
      H   52    0.20994      0.00000     0.78822    0.00184     0.79006
      H   53    0.20321      0.00000     0.79515    0.00164     0.79679
      H   54    0.24436      0.00000     0.75155    0.00409     0.75564
      N   55   -0.54519      1.99925     5.53091    0.01503     7.54519
      C   56   -0.39965      1.99932     4.38504    0.01528     6.39965
      H   57    0.18164      0.00000     0.81407    0.00429     0.81836
      H   58    0.21064      0.00000     0.78764    0.00172     0.78936
      H   59    0.20598      0.00000     0.79233    0.00169     0.79402
      C   60   -0.40157      1.99932     4.38804    0.01422     6.40157
      H   61    0.20882      0.00000     0.78933    0.00184     0.79118
      H   62    0.17273      0.00000     0.82320    0.00407     0.82727
      H   63    0.21590      0.00000     0.78262    0.00147     0.78410
      C   64   -0.34810      1.99888     4.32199    0.02723     6.34810
      C   65   -0.21398      1.99895     4.19904    0.01600     6.21398
      C   66   -0.22336      1.99891     4.20797    0.01649     6.22336
      C   67   -0.21943      1.99889     4.20085    0.01969     6.21943
      C   68   -0.19986      1.99885     4.18228    0.01872     6.19986
      C   69   -0.22856      1.99891     4.21358    0.01606     6.22856
      H   70    0.22727      0.00000     0.77109    0.00164     0.77273
      H   71    0.22791      0.00000     0.77035    0.00174     0.77209
      H   72    0.24512      0.00000     0.75293    0.00195     0.75488
      H   73    0.23762      0.00000     0.76017    0.00221     0.76238
      H   74    0.22875      0.00000     0.76958    0.00167     0.77125
      C   75   -0.33784      1.99884     4.31219    0.02681     6.33784
      C   76   -0.22211      1.99894     4.20732    0.01584     6.22211
      C   77   -0.22458      1.99894     4.20975    0.01589     6.22458
      C   78   -0.21523      1.99889     4.19846    0.01788     6.21523
      C   79   -0.19250      1.99891     4.17182    0.02176     6.19250
      C   80   -0.22877      1.99892     4.21367    0.01617     6.22877
      H   81    0.22092      0.00000     0.77738    0.00170     0.77908
      H   82    0.22087      0.00000     0.77735    0.00177     0.77913
      H   83    0.22776      0.00000     0.76955    0.00269     0.77224
      H   84    0.22443      0.00000     0.77320    0.00237     0.77557
      H   85    0.22231      0.00000     0.77596    0.00173     0.77769
      C   86   -0.33128      1.99888     4.30541    0.02698     6.33128
      C   87   -0.22201      1.99895     4.20719    0.01587     6.22201
      C   88   -0.22225      1.99893     4.20762    0.01570     6.22225
      C   89   -0.22392      1.99890     4.20709    0.01793     6.22392
      C   90   -0.21272      1.99888     4.19571    0.01814     6.21272
      C   91   -0.21137      1.99895     4.19668    0.01575     6.21137
      H   92    0.22363      0.00000     0.77470    0.00166     0.77637
      H   93    0.22561      0.00000     0.77270    0.00169     0.77439
      H   94    0.22439      0.00000     0.77304    0.00257     0.77561
      H   95    0.23503      0.00000     0.76262    0.00235     0.76497
      H   96    0.22392      0.00000     0.77434    0.00174     0.77608
      C   97   -0.34325      1.99888     4.31675    0.02762     6.34325
      C   98   -0.21435      1.99894     4.19942    0.01599     6.21435
      C   99   -0.22151      1.99891     4.20608    0.01652     6.22151
      C  100   -0.19921      1.99889     4.17969    0.02063     6.19921
      C  101   -0.19495      1.99886     4.17698    0.01910     6.19495
      C  102   -0.22337      1.99893     4.20762    0.01681     6.22337
      H  103    0.22347      0.00000     0.77487    0.00166     0.77653
      H  104    0.22367      0.00000     0.77457    0.00176     0.77633
      H  105    0.23592      0.00000     0.76209    0.00199     0.76408
      H  106    0.22510      0.00000     0.77282    0.00207     0.77490
      H  107    0.22440      0.00000     0.77396    0.00164     0.77560
 =======================================================================
   * Total *   -0.00000    145.92811   284.77531    1.29658   432.00000

 Normal termination of Gaussian 16 at Sat Aug 12 03:39:39 2023.
