 Gaussian 16, Revision C.02,
 Gaussian 16:  ES64L-G16RevC.02  7-Dec-2021

 ----------------------------------------------------------------------
 #p pop=nbo pbe1pbe/def2svpp empiricaldispersion=gd3bj integral=grid=ul
 trafinegrid scf=(xqc,maxconventionalcycles=90) nosymm
 ----------------------------------------------------------------------

 ----
 Cisa
 ----
 Symbolic Z-matrix:
 Charge =  0 Multiplicity = 1

                          Input orientation:
 ---------------------------------------------------------------------
 Center     Atomic      Atomic             Coordinates (Angstroms)
 Number     Number       Type             X           Y           Z
 ---------------------------------------------------------------------
      1         15           0        0.233490    0.959370   -0.703140
      2          6           0        1.147010    0.476670   -2.195390
      3          6           0        0.465560   -0.224700   -3.192410
      4          6           0        1.132470   -0.722710   -4.315830
      5          6           0        2.512120   -0.481210   -4.423410
      6          6           0        3.222150    0.225790   -3.433150
      7          6           0        2.522310    0.697640   -2.324320
      8          6           0        0.843400    2.601070   -0.213490
      9          6           0        0.567620    3.063860    1.080540
     10          6           0        0.820590    4.384610    1.446310
     11          6           0        1.361200    5.254550    0.480990
     12          6           0        1.622230    4.826760   -0.830330
     13          6           0        1.352710    3.494170   -1.160190
     14         15           0       -2.507530   -0.850370    0.030730
     15          6           0       -1.050500   -2.021990    0.142900
     16          6           0       -1.341020   -3.453850    0.582050
     17          6           0        0.721140   -0.148660    0.639460
     18          6           0        0.028750   -1.372220    0.962380
     19          6           0        0.546780   -1.835680    2.209870
     20          6           0        1.550930   -0.927810    2.651170
     21          6           0        1.669510    0.106480    1.684800
     22          1           0       -0.612760   -0.394610   -3.082790
     23          1           0        3.065140    1.234150   -1.540350
     24          1           0        0.127510    2.389870    1.820960
     25          1           0        1.534940    3.162930   -2.186740
     26          1           0       -0.703590   -2.052380   -0.906040
     27          1           0       -0.393620   -4.016690    0.622480
     28          1           0       -2.001860   -3.968560   -0.130480
     29          1           0       -1.806210   -3.507360    1.576520
     30          1           0        2.356890    0.950640    1.722080
     31         26           0        2.036320   -1.703580    0.823210
     32          6           0        3.124010   -3.427440    0.995040
     33          6           0        3.989400   -2.297390    0.950200
     34          6           0        3.760640   -1.616290   -0.278960
     35          6           0        2.754790   -2.326990   -0.997480
     36          6           0        2.365500   -3.446540   -0.211370
     37          1           0        3.040700   -4.138480    1.817340
     38          1           0        4.261340   -0.706100   -0.605100
     39          1           0        2.345510   -2.052540   -1.969590
     40          1           0        1.612410   -4.186200   -0.483500
     41          1           0        2.155420   -1.033660    3.551890
     42          1           0        0.261240   -2.755760    2.718120
     43          1           0        4.682440   -1.990730    1.733900
     44          6           0       -3.085830   -0.382810    1.733570
     45          6           0       -3.062130   -1.468060    2.814310
     46          6           0       -2.349370    0.870940    2.228790
     47          1           0       -4.143040   -0.098320    1.550830
     48          6           0       -3.667140   -0.949090    4.118170
     49          1           0       -2.013480   -1.758990    2.999490
     50          1           0       -3.597570   -2.373010    2.486920
     51          6           0       -2.940770    1.386960    3.536520
     52          1           0       -1.284190    0.618370    2.382350
     53          1           0       -2.380920    1.656650    1.449020
     54          6           0       -2.950620    0.304020    4.610110
     55          1           0       -3.627760   -1.742410    4.884760
     56          1           0       -4.738970   -0.723000    3.957490
     57          1           0       -2.369470    2.268390    3.879290
     58          1           0       -3.975520    1.736280    3.354720
     59          1           0       -3.424690    0.680510    5.532920
     60          1           0       -1.907130    0.045390    4.874510
     61          6           0       -3.904430   -1.746520   -0.794030
     62          6           0       -3.437200   -2.316010   -2.139900
     63          6           0       -4.718090   -2.767260    0.007340
     64          1           0       -4.597220   -0.910780   -1.016740
     65          6           0       -4.614180   -2.844440   -2.955290
     66          1           0       -2.723880   -3.142300   -1.965800
     67          1           0       -2.884510   -1.542620   -2.706190
     68          6           0       -5.885260   -3.293320   -0.828740
     69          1           0       -4.081240   -3.611910    0.319980
     70          1           0       -5.108410   -2.303700    0.928680
     71          6           0       -5.418890   -3.869010   -2.161810
     72          1           0       -4.248640   -3.283850   -3.899710
     73          1           0       -5.272440   -1.999060   -3.236450
     74          1           0       -6.439870   -4.053530   -0.252050
     75          1           0       -6.595880   -2.465520   -1.017500
     76          1           0       -6.284260   -4.216170   -2.751970
     77          1           0       -4.789880   -4.761100   -1.976160
     78          6           0        2.153090    5.786480   -1.853980
     79          8           0        1.561790    6.555760    0.820360
     80          8           0        3.211670   -0.992380   -5.469920
     81          6           0        3.197250   -0.235240   -6.660410
     82          1           0        3.594060    0.783850   -6.494170
     83          1           0        3.843480   -0.760940   -7.378770
     84          1           0        2.178810   -0.155960   -7.083450
     85          6           0        2.866380    6.892940    1.238320
     86          1           0        3.606980    6.733590    0.432760
     87          1           0        2.849680    7.960370    1.503870
     88          1           0        3.171450    6.304270    2.123780
     89          6           0        0.504060    4.892350    2.821750
     90          6           0        4.705140    0.403740   -3.565440
     91          6           0        0.405710   -1.513280   -5.363930
     92          1           0        0.067690   -0.871400   -6.198160
     93          1           0       -0.489760   -1.997420   -4.940920
     94          1           0        1.059760   -2.290170   -5.791410
     95          1           0        4.971240    0.968760   -4.475470
     96          1           0        5.209630   -0.574740   -3.642000
     97          1           0        5.117290    0.944710   -2.698780
     98          1           0        3.255520    5.857520   -1.810440
     99          1           0        1.753130    6.799040   -1.684760
    100          1           0        1.886670    5.463930   -2.873440
    101          1           0        1.422530    5.084820    3.404950
    102          1           0       -0.100800    4.161450    3.382600
    103          1           0       -0.045340    5.846810    2.771320
 ---------------------------------------------------------------------

 SCF Done:  E(RPBE1PBE) =  -3726.87702662     A.U. after   19 cycles

 Alpha  occ. eigenvalues -- -256.34389 -77.17976 -77.16156 -30.11853 -25.96704
 Alpha  occ. eigenvalues --  -25.94808 -25.94799 -19.23062 -19.22023 -10.28724
 Alpha  occ. eigenvalues --  -10.28185 -10.27426 -10.27136 -10.24792 -10.24476
 Alpha  occ. eigenvalues --  -10.24333 -10.24051 -10.23921 -10.23777 -10.23669
 Alpha  occ. eigenvalues --  -10.23656 -10.23573 -10.23555 -10.23500 -10.23444
 Alpha  occ. eigenvalues --  -10.23400 -10.23353 -10.23320 -10.23281 -10.23234
 Alpha  occ. eigenvalues --  -10.23217 -10.23062 -10.23052 -10.22853 -10.22776
 Alpha  occ. eigenvalues --  -10.22626 -10.22615 -10.22225 -10.22178 -10.22158
 Alpha  occ. eigenvalues --  -10.22123 -10.22049 -10.22005 -10.21937 -10.21843
 Alpha  occ. eigenvalues --  -10.21678 -10.21634 -10.21599 -10.21523 -10.21464
 Alpha  occ. eigenvalues --  -10.21210  -6.59008  -6.57257  -4.73065  -4.73056
 Alpha  occ. eigenvalues --   -4.72518  -4.71329  -4.71288  -4.70720  -3.45040
 Alpha  occ. eigenvalues --   -2.24031  -2.19265  -2.19248  -1.08350  -1.07266
 Alpha  occ. eigenvalues --   -0.91555  -0.89663  -0.87877  -0.86712  -0.85354
 Alpha  occ. eigenvalues --   -0.84471  -0.80449  -0.80399  -0.79405  -0.79028
 Alpha  occ. eigenvalues --   -0.76931  -0.76330  -0.75675  -0.74901  -0.74752
 Alpha  occ. eigenvalues --   -0.73624  -0.73160  -0.72349  -0.72291  -0.72159
 Alpha  occ. eigenvalues --   -0.71266  -0.69602  -0.69185  -0.68512  -0.67686
 Alpha  occ. eigenvalues --   -0.65928  -0.63583  -0.62508  -0.61946  -0.61150
 Alpha  occ. eigenvalues --   -0.60622  -0.59843  -0.59311  -0.58696  -0.57025
 Alpha  occ. eigenvalues --   -0.56682  -0.56119  -0.55610  -0.55202  -0.54820
 Alpha  occ. eigenvalues --   -0.54612  -0.53992  -0.53760  -0.52874  -0.51482
 Alpha  occ. eigenvalues --   -0.51282  -0.51033  -0.49989  -0.49035  -0.48740
 Alpha  occ. eigenvalues --   -0.47941  -0.47817  -0.46552  -0.45659  -0.45466
 Alpha  occ. eigenvalues --   -0.45394  -0.45161  -0.44629  -0.44453  -0.44364
 Alpha  occ. eigenvalues --   -0.44145  -0.43502  -0.43438  -0.43216  -0.43109
 Alpha  occ. eigenvalues --   -0.42724  -0.42703  -0.42470  -0.42326  -0.41959
 Alpha  occ. eigenvalues --   -0.41878  -0.41775  -0.41568  -0.41360  -0.41015
 Alpha  occ. eigenvalues --   -0.40832  -0.40797  -0.40224  -0.39835  -0.39707
 Alpha  occ. eigenvalues --   -0.39186  -0.38892  -0.38857  -0.38790  -0.38691
 Alpha  occ. eigenvalues --   -0.38434  -0.38140  -0.37785  -0.37600  -0.37279
 Alpha  occ. eigenvalues --   -0.36961  -0.36827  -0.36446  -0.36323  -0.36025
 Alpha  occ. eigenvalues --   -0.35660  -0.35465  -0.35254  -0.34681  -0.34502
 Alpha  occ. eigenvalues --   -0.34333  -0.33809  -0.33733  -0.32888  -0.32316
 Alpha  occ. eigenvalues --   -0.31843  -0.31336  -0.30546  -0.30370  -0.29089
 Alpha  occ. eigenvalues --   -0.28126  -0.28001  -0.27846  -0.27474  -0.26921
 Alpha  occ. eigenvalues --   -0.25652  -0.25452  -0.25031  -0.24580  -0.24356
 Alpha  occ. eigenvalues --   -0.24058  -0.21743  -0.21150  -0.20762  -0.16547
 Alpha virt. eigenvalues --   -0.01586  -0.00422   0.00016   0.00494   0.00629
 Alpha virt. eigenvalues --    0.01033   0.03977   0.04435   0.05405   0.06009
 Alpha virt. eigenvalues --    0.06342   0.06576   0.07015   0.07065   0.07471

 Mulliken charges:
               1
     1  P    0.412003
     2  C   -0.084063
     3  C   -0.218935
     4  C   -0.019919
     5  C    0.093295
     6  C   -0.017626
     7  C   -0.224041
     8  C   -0.075454
     9  C   -0.251097
    10  C   -0.009209
    11  C    0.082600
    12  C   -0.004790
    13  C   -0.246022
    14  P    0.332713
    15  C   -0.335026
    16  C   -0.319727
    17  C   -0.155993
    18  C   -0.044869
    19  C   -0.091409
    20  C   -0.047878
    21  C   -0.096966
    22  H    0.106803
    23  H    0.100560
    24  H    0.105905
    25  H    0.093860
    26  H    0.155661
    27  H    0.139860
    28  H    0.147276
    29  H    0.134878
    30  H    0.119551
    31  Fe  -0.218403
    32  C   -0.085643
    33  C   -0.068117
    34  C   -0.092522
    35  C   -0.111662
    36  C   -0.088420
    37  H    0.112053
    38  H    0.108530
    39  H    0.150486
    40  H    0.110550
    41  H    0.106484
    42  H    0.103245
    43  H    0.113186
    44  C   -0.381878
    45  C   -0.225958
    46  C   -0.246900
    47  H    0.124271
    48  C   -0.185903
    49  H    0.139542
    50  H    0.135729
    51  C   -0.197333
    52  H    0.179799
    53  H    0.143600
    54  C   -0.214232
    55  H    0.108203
    56  H    0.098212
    57  H    0.119403
    58  H    0.100565
    59  H    0.111800
    60  H    0.103956
    61  C   -0.369648
    62  C   -0.240769
    63  C   -0.199038
    64  H    0.130517
    65  C   -0.185949
    66  H    0.122993
    67  H    0.153073
    68  C   -0.190695
    69  H    0.115013
    70  H    0.132479
    71  C   -0.216833
    72  H    0.111965
    73  H    0.105209
    74  H    0.112027
    75  H    0.101010
    76  H    0.115552
    77  H    0.101781
    78  C   -0.299068
    79  O   -0.362823
    80  O   -0.359967
    81  C   -0.127600
    82  H    0.120540
    83  H    0.141216
    84  H    0.120218
    85  C   -0.121027
    86  H    0.115341
    87  H    0.137056
    88  H    0.115845
    89  C   -0.297832
    90  C   -0.281571
    91  C   -0.298863
    92  H    0.146487
    93  H    0.132946
    94  H    0.146458
    95  H    0.135399
    96  H    0.150214
    97  H    0.125987
    98  H    0.139176
    99  H    0.145467
   100  H    0.130226
   101  H    0.133527
   102  H    0.133397
   103  H    0.145978
 Sum of Mulliken charges =  -0.00000

 Dipole moment (field-independent basis, Debye):
    X=              1.6171    Y=             -0.6201    Z=             -0.6934  Tot=              1.8655
 Quadrupole moment (field-independent basis, Debye-Ang):
   XX=           -297.7525   YY=           -305.6511   ZZ=           -282.2631
   XY=             20.0126   XZ=             -0.4420   YZ=             -1.3996

 Summary of Natural Population Analysis:

                                       Natural Population
                Natural  -----------------------------------------------
    Atom  No    Charge         Core      Valence    Rydberg      Total
 -----------------------------------------------------------------------
      P    1    0.89282      9.99789     4.06307    0.04622    14.10718
      C    2   -0.34720      1.99885     4.32165    0.02671     6.34720
      C    3   -0.19864      1.99884     4.18215    0.01766     6.19864
      C    4   -0.07664      1.99881     4.06212    0.01572     6.07664
      C    5    0.33471      1.99849     3.64121    0.02559     5.66529
      C    6   -0.06988      1.99881     4.05451    0.01656     6.06988
      C    7   -0.20944      1.99887     4.19084    0.01974     6.20944
      C    8   -0.34303      1.99890     4.31990    0.02423     6.34303
      C    9   -0.21833      1.99887     4.20192    0.01754     6.21833
      C   10   -0.06196      1.99882     4.04681    0.01632     6.06196
      C   11    0.31607      1.99849     3.65969    0.02575     5.68393
      C   12   -0.06513      1.99883     4.05018    0.01611     6.06513
      C   13   -0.22152      1.99887     4.20550    0.01715     6.22152
      P   14    0.79856      9.99834     4.16005    0.04305    14.20144
      C   15   -0.52939      1.99900     4.50753    0.02287     6.52939
      C   16   -0.62419      1.99926     4.61220    0.01272     6.62419
      C   17   -0.38563      1.99857     4.35615    0.03091     6.38563
      C   18   -0.06159      1.99861     4.03157    0.03141     6.06159
      C   19   -0.24040      1.99864     4.21981    0.02195     6.24040
      C   20   -0.22990      1.99866     4.20761    0.02363     6.22990
      C   21   -0.22635      1.99865     4.20187    0.02583     6.22635
      H   22    0.23388      0.00000     0.76401    0.00211     0.76612
      H   23    0.23497      0.00000     0.76297    0.00205     0.76503
      H   24    0.22630      0.00000     0.77073    0.00297     0.77370
      H   25    0.22887      0.00000     0.76902    0.00211     0.77113
      H   26    0.26772      0.00000     0.72861    0.00367     0.73228
      H   27    0.21457      0.00000     0.78258    0.00286     0.78543
      H   28    0.21750      0.00000     0.78114    0.00137     0.78250
      H   29    0.21817      0.00000     0.78023    0.00159     0.78183
      H   30    0.25887      0.00000     0.73981    0.00132     0.74113
     Fe   31    0.02203     17.99296     7.96698    0.01803    25.97797
      C   32   -0.24088      1.99866     4.21929    0.02293     6.24088
      C   33   -0.23838      1.99866     4.21687    0.02284     6.23838
      C   34   -0.24347      1.99868     4.22199    0.02280     6.24347
      C   35   -0.23627      1.99870     4.21406    0.02351     6.23627
      C   36   -0.24499      1.99868     4.22291    0.02340     6.24499
      H   37    0.24448      0.00000     0.75435    0.00117     0.75552
      H   38    0.24256      0.00000     0.75567    0.00178     0.75744
      H   39    0.24972      0.00000     0.74654    0.00374     0.75028
      H   40    0.24183      0.00000     0.75671    0.00146     0.75817
      H   41    0.24723      0.00000     0.75159    0.00119     0.75277
      H   42    0.25258      0.00000     0.74625    0.00117     0.74742
      H   43    0.24498      0.00000     0.75388    0.00114     0.75502
      C   44   -0.53913      1.99903     4.51926    0.02084     6.53913
      C   45   -0.43951      1.99909     4.42432    0.01610     6.43951
      C   46   -0.43911      1.99911     4.42360    0.01640     6.43911
      H   47    0.24506      0.00000     0.75076    0.00418     0.75494
      C   48   -0.42804      1.99914     4.41353    0.01536     6.42804
      H   49    0.21758      0.00000     0.77850    0.00392     0.78242
      H   50    0.22542      0.00000     0.77199    0.00259     0.77458
      C   51   -0.42911      1.99913     4.41476    0.01522     6.42911
      H   52    0.21805      0.00000     0.77637    0.00558     0.78195
      H   53    0.24378      0.00000     0.75362    0.00260     0.75622
      C   54   -0.43286      1.99913     4.41967    0.01405     6.43286
      H   55    0.22180      0.00000     0.77573    0.00246     0.77820
      H   56    0.20927      0.00000     0.78769    0.00303     0.79073
      H   57    0.22291      0.00000     0.77480    0.00229     0.77709
      H   58    0.21080      0.00000     0.78615    0.00305     0.78920
      H   59    0.22249      0.00000     0.77520    0.00231     0.77751
      H   60    0.21216      0.00000     0.78494    0.00289     0.78784
      C   61   -0.54175      1.99903     4.52243    0.02029     6.54175
      C   62   -0.43590      1.99912     4.42144    0.01534     6.43590
      C   63   -0.43638      1.99911     4.42111    0.01617     6.43638
      H   64    0.25112      0.00000     0.74484    0.00404     0.74888
      C   65   -0.42741      1.99914     4.41305    0.01522     6.42741
      H   66    0.21137      0.00000     0.78552    0.00312     0.78863
      H   67    0.23220      0.00000     0.76478    0.00302     0.76780
      C   68   -0.42999      1.99914     4.41556    0.01529     6.42999
      H   69    0.21533      0.00000     0.78166    0.00301     0.78467
      H   70    0.22480      0.00000     0.77231    0.00290     0.77520
      C   71   -0.43350      1.99914     4.42025    0.01411     6.43350
      H   72    0.22380      0.00000     0.77391    0.00229     0.77620
      H   73    0.21321      0.00000     0.78379    0.00300     0.78679
      H   74    0.22401      0.00000     0.77359    0.00241     0.77599
      H   75    0.21104      0.00000     0.78591    0.00304     0.78896
      H   76    0.22496      0.00000     0.77276    0.00228     0.77504
      H   77    0.21000      0.00000     0.78699    0.00301     0.79000
      C   78   -0.63815      1.99925     4.62895    0.00995     6.63815
      O   79   -0.58886      1.99964     6.57899    0.01023     8.58886
      O   80   -0.58639      1.99964     6.57650    0.01025     8.58639
      C   81   -0.22467      1.99929     4.21132    0.01407     6.22467
      H   82    0.17587      0.00000     0.82189    0.00224     0.82413
      H   83    0.19991      0.00000     0.79908    0.00101     0.80009
      H   84    0.17519      0.00000     0.82240    0.00241     0.82481
      C   85   -0.22282      1.99929     4.20956    0.01397     6.22282
      H   86    0.17305      0.00000     0.82450    0.00246     0.82695
      H   87    0.19718      0.00000     0.80171    0.00111     0.80282
      H   88    0.17386      0.00000     0.82381    0.00234     0.82614
      C   89   -0.63405      1.99924     4.62426    0.01054     6.63405
      C   90   -0.63487      1.99925     4.62464    0.01098     6.63487
      C   91   -0.63987      1.99925     4.63052    0.01010     6.63987
      H   92    0.22588      0.00000     0.77260    0.00152     0.77412
      H   93    0.22589      0.00000     0.77276    0.00135     0.77411
      H   94    0.23281      0.00000     0.76428    0.00291     0.76719
      H   95    0.22484      0.00000     0.77367    0.00150     0.77516
      H   96    0.23712      0.00000     0.76071    0.00217     0.76288
      H   97    0.21957      0.00000     0.77917    0.00126     0.78043
      H   98    0.22185      0.00000     0.77662    0.00153     0.77815
      H   99    0.23252      0.00000     0.76452    0.00297     0.76748
      H  100    0.22400      0.00000     0.77464    0.00136     0.77600
      H  101    0.22188      0.00000     0.77663    0.00149     0.77812
      H  102    0.22014      0.00000     0.77851    0.00135     0.77986
      H  103    0.23450      0.00000     0.76306    0.00244     0.76550
 =======================================================================
   * Total *   -0.00000    125.94355   253.00864    1.04781   380.00000

 Normal termination of Gaussian 16 at Fri Sep 29 19:34:52 2023.
