 Gaussian 16, Revision C.01,
 Gaussian 16:  ES64L-G16RevC.01  3-Jul-2019

 ----------------------------------------------------------------------
 #p pop=nbo NMR pbe1pbe/def2svpp empiricaldispersion=gd3bj integral=gri
 d=ultrafinegrid scf=(xqc,maxconventionalcycles=90) nosymm
 ----------------------------------------------------------------------

 ----
 Cisa
 ----
 Symbolic Z-matrix:
 Charge =  0 Multiplicity = 1

                          Input orientation:
 ---------------------------------------------------------------------
 Center     Atomic      Atomic             Coordinates (Angstroms)
 Number     Number       Type             X           Y           Z
 ---------------------------------------------------------------------
      1          6           0       -4.539860   -0.590140   -1.440530
      2          6           0       -5.090580    0.714200   -1.285940
      3          6           0       -4.266480    1.628790   -2.002840
      4          6           0       -3.202760    0.890420   -2.596590
      5          6           0       -3.372980   -0.480610   -2.250820
      6          1           0       -4.940430   -1.506950   -1.007750
      7          1           0       -5.976190    0.970450   -0.704260
      8          1           0       -4.414440    2.707240   -2.066400
      9          1           0       -2.397410    1.302250   -3.206170
     10          1           0       -2.719580   -1.300040   -2.550160
     11         26           0       -3.178870    0.674220   -0.561150
     12          6           0       -2.653940    2.183760    0.705120
     13          6           0       -1.497930    1.595520    0.106060
     14          6           0       -1.479670    0.194350    0.476900
     15          6           0       -2.651870   -0.034750    1.281560
     16          6           0       -3.361250    1.181920    1.420330
     17          1           0       -2.974340    3.217800    0.591950
     18          1           0       -2.939440   -0.982160    1.733140
     19          1           0       -4.302610    1.317610    1.952480
     20          6           0       -0.545950    2.350740   -0.785410
     21          1           0       -0.574570    1.877130   -1.782490
     22         15           0       -0.087750   -0.971270    0.333480
     23          6           0       -0.923400    3.819470   -0.959190
     24          1           0       -0.239820    4.330060   -1.652840
     25          1           0       -1.941080    3.888620   -1.379280
     26          1           0       -0.907620    4.377380   -0.010220
     27         15           0        1.221860    2.017080   -0.312650
     28          6           0        1.491520    2.417340    1.439110
     29          6           0        2.671430    1.933060    2.025670
     30          6           0        2.947200    2.183530    3.367000
     31          6           0        2.034570    2.900120    4.142900
     32          6           0        0.855000    3.373240    3.569470
     33          6           0        0.585550    3.141770    2.220980
     34          1           0        3.870940    1.804940    3.813480
     35          1           0        2.242310    3.086040    5.200470
     36          1           0        0.134620    3.928600    4.176490
     37          1           0       -0.348570    3.508070    1.793370
     38          6           0        2.169510    3.283080   -1.228770
     39          6           0        1.946780    3.439080   -2.606630
     40          6           0        2.673850    4.371880   -3.340550
     41          6           0        3.642360    5.155350   -2.710530
     42          6           0        3.869770    5.007040   -1.344360
     43          6           0        3.135440    4.079510   -0.603930
     44          1           0        2.482950    4.489230   -4.411110
     45          1           0        4.215860    5.886470   -3.287160
     46          1           0        4.620340    5.624390   -0.842670
     47          1           0        3.311840    3.988270    0.471020
     48          1           0        1.187030    2.836030   -3.115890
     49          1           0        3.368270    1.336480    1.427150
     50          6           0        0.242450   -1.438940    2.121820
     51          6           0        1.664290   -1.989080    2.289550
     52          6           0        0.007030   -0.306640    3.125700
     53          1           0       -0.479430   -2.249940    2.342500
     54          6           0        1.931480   -2.444170    3.722220
     55          1           0        2.379840   -1.191870    2.007440
     56          1           0        1.842710   -2.831150    1.604050
     57          6           0        0.262660   -0.771010    4.557330
     58          1           0       -1.015470    0.089990    3.041750
     59          1           0        0.687020    0.527210    2.892590
     60          6           0        1.670220   -1.329040    4.726180
     61          1           0        2.970250   -2.809320    3.805170
     62          1           0        1.278610   -3.307880    3.953430
     63          1           0        0.096240    0.074730    5.247230
     64          1           0       -0.476920   -1.548660    4.830140
     65          1           0        2.403540   -0.515310    4.567230
     66          1           0        1.822010   -1.695230    5.756310
     67          6           0       -0.769600   -2.539510   -0.429240
     68          6           0        0.144360   -3.753720   -0.218290
     69          6           0       -2.193230   -2.920300   -0.019680
     70          1           0       -0.781520   -2.297720   -1.510380
     71          6           0       -0.335080   -4.948770   -1.040900
     72          1           0        0.126730   -4.032350    0.851250
     73          1           0        1.190940   -3.529670   -0.466750
     74          6           0       -2.695350   -4.118330   -0.824340
     75          1           0       -2.867580   -2.067630   -0.164590
     76          1           0       -2.209120   -3.174130    1.057940
     77          6           0       -1.771100   -5.322690   -0.693770
     78          1           0        0.339280   -5.806650   -0.874440
     79          1           0       -0.265480   -4.700050   -2.117990
     80          1           0       -3.718190   -4.378310   -0.499730
     81          1           0       -2.772240   -3.827690   -1.890330
     82          1           0       -1.805680   -5.697230    0.347200
     83          1           0       -2.120640   -6.150050   -1.334950
 ---------------------------------------------------------------------

 SCF Done:  E(RPBE1PBE) =  -3341.29900431     A.U. after   18 cycles

      1  C    Isotropic =   123.8713   Anisotropy =    84.6449

      2  C    Isotropic =   126.5377   Anisotropy =    79.8230

      3  C    Isotropic =   124.8943   Anisotropy =    81.2733

      4  C    Isotropic =   117.6237   Anisotropy =    94.3586

      5  C    Isotropic =   123.6335   Anisotropy =    82.5522

      6  H    Isotropic =    28.5817   Anisotropy =     4.4786

      7  H    Isotropic =    28.3899   Anisotropy =     6.8676

      8  H    Isotropic =    28.0591   Anisotropy =     4.8874

      9  H    Isotropic =    28.9462   Anisotropy =     3.2063

     10  H    Isotropic =    28.1334   Anisotropy =     5.4037

     11  Fe   Isotropic = -5007.8738   Anisotropy =  9009.6794

     12  C    Isotropic =   123.3993   Anisotropy =    76.4953

     13  C    Isotropic =   105.0534   Anisotropy =    79.9666

     14  C    Isotropic =   120.5979   Anisotropy =    83.7852

     15  C    Isotropic =   110.0887   Anisotropy =    86.2885

     16  C    Isotropic =   123.9239   Anisotropy =    83.4646

     17  H    Isotropic =    27.8853   Anisotropy =     3.7595

     18  H    Isotropic =    28.6290   Anisotropy =     3.6687

     19  H    Isotropic =    28.2334   Anisotropy =     7.4121

     20  C    Isotropic =   161.7916   Anisotropy =    13.9863

     21  H    Isotropic =    27.6133   Anisotropy =     6.0770

     22  P    Isotropic =   432.4994   Anisotropy =    61.3888

     23  C    Isotropic =   175.3792   Anisotropy =     7.5697

     24  H    Isotropic =    30.0963   Anisotropy =    10.0180

     25  H    Isotropic =    30.1500   Anisotropy =     8.1152

     26  H    Isotropic =    30.5489   Anisotropy =     7.4528

     27  P    Isotropic =   409.1532   Anisotropy =    63.5689

     28  C    Isotropic =    60.4489   Anisotropy =   189.6189

     29  C    Isotropic =    57.0027   Anisotropy =   182.2444

     30  C    Isotropic =    66.0031   Anisotropy =   180.3313

     31  C    Isotropic =    66.6975   Anisotropy =   180.3514

     32  C    Isotropic =    65.9349   Anisotropy =   178.9795

     33  C    Isotropic =    60.2918   Anisotropy =   181.1710

     34  H    Isotropic =    24.5725   Anisotropy =     4.2210

     35  H    Isotropic =    24.9211   Anisotropy =     2.6170

     36  H    Isotropic =    25.0386   Anisotropy =     6.6061

     37  H    Isotropic =    24.6480   Anisotropy =    11.1725

     38  C    Isotropic =    52.3029   Anisotropy =   191.0223

     39  C    Isotropic =    66.3790   Anisotropy =   171.2548

     40  C    Isotropic =    67.1186   Anisotropy =   173.2480

     41  C    Isotropic =    70.3191   Anisotropy =   170.1172

     42  C    Isotropic =    66.3552   Anisotropy =   174.0636

     43  C    Isotropic =    66.6035   Anisotropy =   174.1897

     44  H    Isotropic =    24.7390   Anisotropy =     6.1658

     45  H    Isotropic =    25.1144   Anisotropy =     3.2613

     46  H    Isotropic =    25.0768   Anisotropy =     6.7217

     47  H    Isotropic =    25.3467   Anisotropy =    14.7881

     48  H    Isotropic =    24.7498   Anisotropy =    11.5869

     49  H    Isotropic =    24.3486   Anisotropy =     7.9392

     50  C    Isotropic =   162.4930   Anisotropy =    18.4332

     51  C    Isotropic =   159.2147   Anisotropy =    17.0664

     52  C    Isotropic =   167.2605   Anisotropy =    10.1863

     53  H    Isotropic =    30.6436   Anisotropy =     6.0189

     54  C    Isotropic =   164.7549   Anisotropy =     3.5665

     55  H    Isotropic =    30.6926   Anisotropy =     4.7464

     56  H    Isotropic =    30.5069   Anisotropy =     7.4604

     57  C    Isotropic =   163.8934   Anisotropy =     7.8225

     58  H    Isotropic =    32.1759   Anisotropy =    13.1587

     59  H    Isotropic =    34.0355   Anisotropy =    19.4029

     60  C    Isotropic =   167.3579   Anisotropy =     7.9171

     61  H    Isotropic =    30.5272   Anisotropy =    10.6905

     62  H    Isotropic =    30.9381   Anisotropy =     8.8084

     63  H    Isotropic =    31.1743   Anisotropy =     7.4650

     64  H    Isotropic =    31.2645   Anisotropy =     8.5002

     65  H    Isotropic =    31.0993   Anisotropy =     7.3400

     66  H    Isotropic =    30.8406   Anisotropy =    11.7555

     67  C    Isotropic =   153.9306   Anisotropy =    24.5385

     68  C    Isotropic =   161.0830   Anisotropy =     5.7167

     69  C    Isotropic =   163.4812   Anisotropy =     5.4746

     70  H    Isotropic =    29.8008   Anisotropy =     4.1712

     71  C    Isotropic =   163.1687   Anisotropy =     4.7482

     72  H    Isotropic =    30.8389   Anisotropy =     6.2151

     73  H    Isotropic =    30.1201   Anisotropy =     6.2270

     74  C    Isotropic =   163.7004   Anisotropy =     5.7852

     75  H    Isotropic =    28.0932   Anisotropy =    11.4917

     76  H    Isotropic =    30.5870   Anisotropy =     3.1436

     77  C    Isotropic =   165.0677   Anisotropy =     5.1606

     78  H    Isotropic =    30.1166   Anisotropy =    10.7253

     79  H    Isotropic =    30.4874   Anisotropy =     8.1689

     80  H    Isotropic =    30.0680   Anisotropy =     9.5757

     81  H    Isotropic =    30.5133   Anisotropy =     5.9097

     82  H    Isotropic =    30.5948   Anisotropy =     8.4080

     83  H    Isotropic =    30.2514   Anisotropy =    11.3936

 Alpha  occ. eigenvalues -- -256.35431 -77.18402 -77.17126 -30.12900 -25.97745
 Alpha  occ. eigenvalues --  -25.95877 -25.95831 -10.25778 -10.25235 -10.24592
 Alpha  occ. eigenvalues --  -10.24523 -10.24434 -10.24405 -10.24375 -10.24337
 Alpha  occ. eigenvalues --  -10.24329 -10.24287 -10.24243 -10.24131 -10.24101
 Alpha  occ. eigenvalues --  -10.24069 -10.24047 -10.24046 -10.24023 -10.23963
 Alpha  occ. eigenvalues --  -10.23428 -10.23298 -10.23119 -10.23101 -10.22917
 Alpha  occ. eigenvalues --  -10.22892 -10.22561 -10.22303 -10.22241 -10.22103
 Alpha  occ. eigenvalues --  -10.22099 -10.22021 -10.21652 -10.21440 -10.21401
 Alpha  occ. eigenvalues --  -10.21224 -10.21165 -10.20688  -6.59467  -6.58114
 Alpha  occ. eigenvalues --   -4.73528  -4.73501  -4.72963  -4.72192  -4.72119
 Alpha  occ. eigenvalues --   -4.71626  -3.46028  -2.24996  -2.20290  -2.20208
 Alpha  occ. eigenvalues --   -0.92283  -0.90481  -0.87996  -0.86942  -0.85309
 Alpha  occ. eigenvalues --   -0.84192  -0.81585  -0.77545  -0.77214  -0.76521
 Alpha  occ. eigenvalues --   -0.75840  -0.75529  -0.75492  -0.74740  -0.74490
 Alpha  occ. eigenvalues --   -0.73283  -0.73273  -0.73103  -0.71816  -0.66956
 Alpha  occ. eigenvalues --   -0.64781  -0.62992  -0.62154  -0.61890  -0.61514
 Alpha  occ. eigenvalues --   -0.60917  -0.60781  -0.60734  -0.58070  -0.57101
 Alpha  occ. eigenvalues --   -0.56799  -0.56310  -0.56004  -0.55671  -0.55337
 Alpha  occ. eigenvalues --   -0.54937  -0.53880  -0.52110  -0.50623  -0.50587
 Alpha  occ. eigenvalues --   -0.48954  -0.47780  -0.47240  -0.46795  -0.46383
 Alpha  occ. eigenvalues --   -0.45868  -0.45394  -0.45238  -0.44995  -0.44778
 Alpha  occ. eigenvalues --   -0.44249  -0.43999  -0.43734  -0.43441  -0.43120
 Alpha  occ. eigenvalues --   -0.42797  -0.42726  -0.42575  -0.42261  -0.42089
 Alpha  occ. eigenvalues --   -0.41579  -0.40539  -0.39977  -0.39802  -0.39573
 Alpha  occ. eigenvalues --   -0.39454  -0.39134  -0.38584  -0.38360  -0.38296
 Alpha  occ. eigenvalues --   -0.38234  -0.37863  -0.37446  -0.37031  -0.36958
 Alpha  occ. eigenvalues --   -0.36322  -0.35907  -0.35393  -0.35087  -0.34901
 Alpha  occ. eigenvalues --   -0.34336  -0.33903  -0.33516  -0.33008  -0.32705
 Alpha  occ. eigenvalues --   -0.31869  -0.31336  -0.30733  -0.29979  -0.28917
 Alpha  occ. eigenvalues --   -0.28796  -0.28587  -0.27872  -0.27119  -0.26538
 Alpha  occ. eigenvalues --   -0.26311  -0.26178  -0.25574  -0.25043  -0.22640
 Alpha  occ. eigenvalues --   -0.22124  -0.21929  -0.17746
 Alpha virt. eigenvalues --   -0.02106  -0.01363  -0.00503  -0.00342  -0.00014
 Alpha virt. eigenvalues --    0.00332   0.02938   0.04413   0.05613   0.05863
 Alpha virt. eigenvalues --    0.06130   0.06363   0.06568   0.06690   0.06940

 Mulliken charges:
               1
     1  C   -0.106257
     2  C   -0.073788
     3  C   -0.082155
     4  C   -0.094471
     5  C   -0.102042
     6  H    0.122871
     7  H    0.116569
     8  H    0.116021
     9  H    0.112447
    10  H    0.125410
    11  Fe  -0.209845
    12  C   -0.103513
    13  C   -0.046161
    14  C   -0.129268
    15  C   -0.159639
    16  C    0.002934
    17  H    0.098672
    18  H    0.109553
    19  H    0.106309
    20  C   -0.342113
    21  H    0.171806
    22  P    0.353576
    23  C   -0.301680
    24  H    0.164162
    25  H    0.133121
    26  H    0.133101
    27  P    0.366241
    28  C   -0.169857
    29  C   -0.127522
    30  C   -0.083181
    31  C   -0.096305
    32  C   -0.082358
    33  C   -0.112002
    34  H    0.102036
    35  H    0.099212
    36  H    0.093251
    37  H    0.113904
    38  C   -0.082186
    39  C   -0.151552
    40  C   -0.085028
    41  C   -0.100979
    42  C   -0.076430
    43  C   -0.146728
    44  H    0.092376
    45  H    0.093283
    46  H    0.091769
    47  H    0.120387
    48  H    0.093388
    49  H    0.114489
    50  C   -0.394755
    51  C   -0.179347
    52  C   -0.236232
    53  H    0.116933
    54  C   -0.195451
    55  H    0.118268
    56  H    0.122484
    57  C   -0.177744
    58  H    0.147746
    59  H    0.179647
    60  C   -0.220469
    61  H    0.110294
    62  H    0.096841
    63  H    0.107670
    64  H    0.092977
    65  H    0.110943
    66  H    0.108414
    67  C   -0.375656
    68  C   -0.209486
    69  C   -0.261507
    70  H    0.137246
    71  C   -0.190193
    72  H    0.122847
    73  H    0.135314
    74  C   -0.193870
    75  H    0.190954
    76  H    0.112881
    77  C   -0.207847
    78  H    0.114572
    79  H    0.103714
    80  H    0.110396
    81  H    0.103881
    82  H    0.102475
    83  H    0.114233
 Sum of Mulliken charges =  -0.00000

 Dipole moment (field-independent basis, Debye):
    X=             -1.9429    Y=              0.6401    Z=              1.0496  Tot=              2.2992
 Quadrupole moment (field-independent basis, Debye-Ang):
   XX=           -251.8430   YY=           -250.2493   ZZ=           -251.0742
   XY=             -1.9077   XZ=             -0.6641   YZ=              0.8329

 Summary of Natural Population Analysis:

                                       Natural Population
                Natural  -----------------------------------------------
    Atom  No    Charge         Core      Valence    Rydberg      Total
 -----------------------------------------------------------------------
      C    1   -0.25064      1.99869     4.22927    0.02268     6.25064
      C    2   -0.23703      1.99866     4.21552    0.02285     6.23703
      C    3   -0.23744      1.99866     4.21631    0.02247     6.23744
      C    4   -0.24500      1.99867     4.22276    0.02357     6.24500
      C    5   -0.24054      1.99870     4.21878    0.02307     6.24054
      H    6    0.24819      0.00000     0.75035    0.00146     0.75181
      H    7    0.24715      0.00000     0.75174    0.00111     0.75285
      H    8    0.24610      0.00000     0.75271    0.00119     0.75390
      H    9    0.24357      0.00000     0.75508    0.00134     0.75643
      H   10    0.24492      0.00000     0.75311    0.00197     0.75508
     Fe   11    0.01712     17.99284     7.97254    0.01750    25.98288
      C   12   -0.23111      1.99863     4.21115    0.02132     6.23111
      C   13   -0.05167      1.99858     4.02207    0.03101     6.05167
      C   14   -0.38499      1.99862     4.35480    0.03156     6.38499
      C   15   -0.23588      1.99867     4.21206    0.02515     6.23588
      C   16   -0.22164      1.99866     4.19939    0.02360     6.22164
      H   17    0.25177      0.00000     0.74693    0.00130     0.74823
      H   18    0.25324      0.00000     0.74488    0.00188     0.74676
      H   19    0.24733      0.00000     0.75145    0.00122     0.75267
      C   20   -0.52519      1.99901     4.50451    0.02167     6.52519
      H   21    0.27221      0.00000     0.72460    0.00319     0.72779
      P   22    0.81902      9.99817     4.14006    0.04275    14.18098
      C   23   -0.62506      1.99926     4.61331    0.01249     6.62506
      H   24    0.23781      0.00000     0.76070    0.00150     0.76219
      H   25    0.21354      0.00000     0.78384    0.00261     0.78646
      H   26    0.21428      0.00000     0.78440    0.00132     0.78572
      P   27    0.86047      9.99807     4.09791    0.04355    14.13953
      C   28   -0.35959      1.99888     4.33542    0.02529     6.35959
      C   29   -0.21750      1.99889     4.20050    0.01811     6.21750
      C   30   -0.22400      1.99892     4.20882    0.01626     6.22400
      C   31   -0.22061      1.99894     4.20586    0.01582     6.22061
      C   32   -0.21462      1.99893     4.19975    0.01594     6.21462
      C   33   -0.20145      1.99887     4.18392    0.01865     6.20145
      H   34    0.22849      0.00000     0.76987    0.00163     0.77151
      H   35    0.22552      0.00000     0.77281    0.00166     0.77448
      H   36    0.22504      0.00000     0.77322    0.00174     0.77496
      H   37    0.22465      0.00000     0.77248    0.00287     0.77535
      C   38   -0.33589      1.99890     4.31222    0.02476     6.33589
      C   39   -0.23360      1.99890     4.21668    0.01801     6.23360
      C   40   -0.21401      1.99893     4.19908    0.01599     6.21401
      C   41   -0.23315      1.99895     4.21829    0.01591     6.23315
      C   42   -0.21086      1.99895     4.19604    0.01587     6.21086
      C   43   -0.21889      1.99888     4.20218    0.01783     6.21889
      H   44    0.22292      0.00000     0.77537    0.00171     0.77708
      H   45    0.22177      0.00000     0.77655    0.00168     0.77823
      H   46    0.22239      0.00000     0.77586    0.00175     0.77761
      H   47    0.23087      0.00000     0.76652    0.00260     0.76913
      H   48    0.22097      0.00000     0.77693    0.00210     0.77903
      H   49    0.23944      0.00000     0.75876    0.00180     0.76056
      C   50   -0.52632      1.99905     4.50624    0.02103     6.52632
      C   51   -0.43252      1.99911     4.41708    0.01633     6.43252
      C   52   -0.43396      1.99907     4.41817    0.01672     6.43396
      H   53    0.22647      0.00000     0.76891    0.00462     0.77353
      C   54   -0.42879      1.99913     4.41455    0.01510     6.42879
      H   55    0.22305      0.00000     0.77361    0.00334     0.77695
      H   56    0.22586      0.00000     0.77152    0.00262     0.77414
      C   57   -0.42402      1.99914     4.40960    0.01528     6.42402
      H   58    0.23279      0.00000     0.76366    0.00354     0.76721
      H   59    0.22108      0.00000     0.76994    0.00898     0.77892
      C   60   -0.43148      1.99912     4.41842    0.01394     6.43148
      H   61    0.22336      0.00000     0.77435    0.00229     0.77664
      H   62    0.20878      0.00000     0.78815    0.00308     0.79122
      H   63    0.22377      0.00000     0.77387    0.00237     0.77623
      H   64    0.20657      0.00000     0.79032    0.00311     0.79343
      H   65    0.21230      0.00000     0.78442    0.00329     0.78770
      H   66    0.22045      0.00000     0.77722    0.00233     0.77955
      C   67   -0.52171      1.99902     4.50077    0.02192     6.52171
      C   68   -0.43948      1.99913     4.42430    0.01605     6.43948
      C   69   -0.44750      1.99908     4.43208    0.01634     6.44750
      H   70    0.24469      0.00000     0.75168    0.00363     0.75531
      C   71   -0.42599      1.99914     4.41163    0.01522     6.42599
      H   72    0.21482      0.00000     0.78183    0.00335     0.78518
      H   73    0.23259      0.00000     0.76438    0.00304     0.76741
      C   74   -0.42790      1.99914     4.41385    0.01491     6.42790
      H   75    0.23213      0.00000     0.76163    0.00624     0.76787
      H   76    0.21154      0.00000     0.78579    0.00267     0.78846
      C   77   -0.43231      1.99913     4.41906    0.01412     6.43231
      H   78    0.22536      0.00000     0.77236    0.00228     0.77464
      H   79    0.21213      0.00000     0.78488    0.00299     0.78787
      H   80    0.22245      0.00000     0.77511    0.00244     0.77755
      H   81    0.20835      0.00000     0.78868    0.00298     0.79165
      H   82    0.21093      0.00000     0.78608    0.00299     0.78907
      H   83    0.22409      0.00000     0.77362    0.00229     0.77591
 =======================================================================
   * Total *    0.00000    109.95009   205.13514    0.91477   316.00000

 Normal termination of Gaussian 16 at Sat Aug 12 04:02:21 2023.
