 Gaussian 16, Revision C.02,
 Gaussian 16:  ES64L-G16RevC.02  7-Dec-2021

 ----------------------------------------------------------------------
 #p pop=nbo pbe1pbe/def2svpp empiricaldispersion=gd3bj integral=grid=ul
 trafinegrid scf=(xqc,maxconventionalcycles=90) nosymm
 ----------------------------------------------------------------------

 ----
 Cisa
 ----
 Symbolic Z-matrix:
 Charge =  0 Multiplicity = 1

                          Input orientation:
 ---------------------------------------------------------------------
 Center     Atomic      Atomic             Coordinates (Angstroms)
 Number     Number       Type             X           Y           Z
 ---------------------------------------------------------------------
      1         15           0        0.222570    0.923450   -0.674070
      2          6           0        1.125480    0.444990   -2.181890
      3          6           0        0.400000   -0.234490   -3.159160
      4          6           0        1.035780   -0.716750   -4.301770
      5          6           0        2.397470   -0.501380   -4.488850
      6          6           0        3.119690    0.201220   -3.520100
      7          6           0        2.493790    0.664490   -2.365860
      8          6           0        0.838630    2.572920   -0.205970
      9          6           0        0.593990    3.027400    1.094590
     10          6           0        0.855330    4.350250    1.438510
     11          6           0        1.361240    5.242100    0.494220
     12          6           0        1.596920    4.793000   -0.802680
     13          6           0        1.337380    3.468590   -1.155750
     14         15           0       -2.511140   -0.866800    0.050470
     15          6           0       -1.058650   -2.037660    0.214910
     16          6           0       -1.366670   -3.448990    0.707030
     17          6           0        0.738090   -0.168120    0.659010
     18          6           0        0.033760   -1.378660    1.010780
     19          6           0        0.573010   -1.830200    2.252310
     20          6           0        1.599080   -0.932190    2.660980
     21          6           0        1.714870    0.087880    1.681020
     22          1           0       -0.676910   -0.383330   -3.015550
     23          1           0        3.078450    1.192010   -1.607670
     24          1           0        0.185580    2.348860    1.847970
     25          1           0        1.526370    3.146570   -2.183210
     26          1           0       -0.713460   -2.114640   -0.832490
     27          1           0       -0.427070   -4.023080    0.764440
     28          1           0       -2.035960   -3.980180    0.015570
     29          1           0       -1.829240   -3.459100    1.704040
     30          1           0        2.416740    0.921110    1.699410
     31         26           0        2.033840   -1.732070    0.826480
     32          6           0        3.103950   -3.466380    1.010870
     33          6           0        3.983030   -2.350770    0.914290
     34          6           0        3.731890   -1.695930   -0.324130
     35          6           0        2.695960   -2.410360   -0.995840
     36          6           0        2.311790   -3.504650   -0.172760
     37          1           0        3.033750   -4.155660    1.852660
     38          1           0        4.251240   -0.812710   -0.692060
     39          1           0        2.267590   -2.163960   -1.967340
     40          1           0        1.541830   -4.240130   -0.406420
     41          1           0        2.898360   -0.879380   -5.382570
     42          1           0        1.567790    6.278640    0.766920
     43          1           0        2.219860   -1.034660    3.550840
     44          1           0        0.285640   -2.738820    2.779510
     45          1           0        4.703000   -2.035720    1.669860
     46          6           0       -3.100960   -0.327870    1.726680
     47          6           0       -3.083470   -1.363770    2.854770
     48          6           0       -2.362060    0.945480    2.166850
     49          1           0       -4.156280   -0.048760    1.526900
     50          6           0       -3.685700   -0.781540    4.133400
     51          1           0       -2.036280   -1.652900    3.053370
     52          1           0       -3.625380   -2.278880    2.567390
     53          6           0       -2.951440    1.525040    3.448360
     54          1           0       -1.298220    0.694180    2.334770
     55          1           0       -2.391470    1.696230    1.351190
     56          6           0       -2.965050    0.490400    4.568410
     57          1           0       -3.649730   -1.539410    4.935000
     58          1           0       -4.756590   -0.559590    3.961920
     59          1           0       -2.377270    2.419660    3.746410
     60          1           0       -3.984940    1.867700    3.248430
     61          1           0       -3.438500    0.909660    5.472600
     62          1           0       -1.922720    0.241710    4.846580
     63          6           0        0.544510    4.788790    2.847940
     64          9           0       -0.768350    4.676190    3.091620
     65          9           0        0.894340    6.049580    3.067680
     66          9           0        1.173870    4.017610    3.735760
     67          6           0        2.078830    5.741960   -1.872650
     68          9           0        3.009490    5.166790   -2.635170
     69          9           0        2.589960    6.852600   -1.354420
     70          9           0        1.067820    6.089790   -2.674820
     71          6           0        4.583290    0.500200   -3.739860
     72          9           0        5.247000    0.516650   -2.577990
     73          9           0        4.741920    1.696220   -4.303930
     74          9           0        5.153150   -0.404730   -4.527910
     75          6           0        0.197530   -1.462810   -5.307600
     76          9           0       -0.423020   -2.496180   -4.724180
     77          9           0        0.918920   -1.929270   -6.317170
     78          9           0       -0.756970   -0.670190   -5.806710
     79          6           0       -3.890200   -1.787490   -0.772500
     80          6           0       -3.395530   -2.422800   -2.079190
     81          6           0       -4.729540   -2.764190    0.057440
     82          1           0       -4.572360   -0.959500   -1.049630
     83          6           0       -4.559670   -2.974810   -2.897220
     84          1           0       -2.698090   -3.249170   -1.851650
     85          1           0       -2.817780   -1.688760   -2.671670
     86          6           0       -5.883260   -3.315850   -0.781020
     87          1           0       -4.107660   -3.599840    0.420200
     88          1           0       -5.133500   -2.256500    0.949400
     89          6           0       -5.393280   -3.954110   -2.076830
     90          1           0       -4.174970   -3.458980   -3.811210
     91          1           0       -5.201510   -2.136470   -3.232320
     92          1           0       -6.457590   -4.044610   -0.183650
     93          1           0       -6.581400   -2.490810   -1.021180
     94          1           0       -6.249210   -4.318000   -2.670370
     95          1           0       -4.779090   -4.843850   -1.838290
 ---------------------------------------------------------------------

 SCF Done:  E(RPBE1PBE) =  -4687.22864707     A.U. after   18 cycles

 Alpha  occ. eigenvalues -- -256.36287 -77.21466 -77.17674 -30.13754 -25.98602
 Alpha  occ. eigenvalues --  -25.96722 -25.96688 -24.82414 -24.82163 -24.82131
 Alpha  occ. eigenvalues --  -24.81650 -24.81641 -24.81510 -24.81422 -24.81355
 Alpha  occ. eigenvalues --  -24.81041 -24.80923 -24.80814 -24.80454 -10.49423
 Alpha  occ. eigenvalues --  -10.49372 -10.48582 -10.48369 -10.28851 -10.28832
 Alpha  occ. eigenvalues --  -10.28606 -10.28204 -10.28061 -10.27986 -10.27665
 Alpha  occ. eigenvalues --  -10.27630 -10.27564 -10.26904 -10.26888 -10.26837
 Alpha  occ. eigenvalues --  -10.26792 -10.26272 -10.25773 -10.25682 -10.25566
 Alpha  occ. eigenvalues --  -10.25449 -10.25142 -10.25081 -10.25065 -10.24978
 Alpha  occ. eigenvalues --  -10.24853 -10.24201 -10.24130 -10.23498 -10.22990
 Alpha  occ. eigenvalues --  -10.22959 -10.22802 -10.22769 -10.22724 -10.22712
 Alpha  occ. eigenvalues --  -10.22543 -10.22443 -10.22253 -10.22156  -6.62499
 Alpha  occ. eigenvalues --   -6.58774  -4.76571  -4.76526  -4.76005  -4.72852
 Alpha  occ. eigenvalues --   -4.72801  -4.72247  -3.46933  -2.25917  -2.21184
 Alpha  occ. eigenvalues --   -2.21121  -1.35257  -1.35113  -1.34461  -1.34256
 Alpha  occ. eigenvalues --   -1.25902  -1.25867  -1.25352  -1.25207  -1.24982
 Alpha  occ. eigenvalues --   -1.24972  -1.24395  -1.24225  -0.93531  -0.93000
 Alpha  occ. eigenvalues --   -0.91851  -0.91410  -0.86267  -0.85435  -0.84345
 Alpha  occ. eigenvalues --   -0.83312  -0.83146  -0.81967  -0.80955  -0.77337
 Alpha  occ. eigenvalues --   -0.76466  -0.76005  -0.75681  -0.75667  -0.74416
 Alpha  occ. eigenvalues --   -0.73963  -0.73906  -0.73502  -0.73397  -0.73046
 Alpha  occ. eigenvalues --   -0.72465  -0.69370  -0.67544  -0.67227  -0.66985
 Alpha  occ. eigenvalues --   -0.66539  -0.65491  -0.63790  -0.63163  -0.63028
 Alpha  occ. eigenvalues --   -0.62799  -0.62788  -0.62602  -0.62352  -0.62134
 Alpha  occ. eigenvalues --   -0.62091  -0.61967  -0.61772  -0.61571  -0.60997
 Alpha  occ. eigenvalues --   -0.58984  -0.57727  -0.57486  -0.57006  -0.56829
 Alpha  occ. eigenvalues --   -0.56752  -0.56514  -0.56103  -0.55722  -0.55512
 Alpha  occ. eigenvalues --   -0.54498  -0.53538  -0.52826  -0.52403  -0.52331
 Alpha  occ. eigenvalues --   -0.51180  -0.50248  -0.50144  -0.50014  -0.49933
 Alpha  occ. eigenvalues --   -0.49740  -0.49494  -0.49345  -0.49172  -0.48991
 Alpha  occ. eigenvalues --   -0.48877  -0.47205  -0.46865  -0.46686  -0.46441
 Alpha  occ. eigenvalues --   -0.46292  -0.46085  -0.45970  -0.45919  -0.45762
 Alpha  occ. eigenvalues --   -0.45432  -0.45421  -0.45277  -0.45079  -0.44896
 Alpha  occ. eigenvalues --   -0.44675  -0.44488  -0.44275  -0.44011  -0.43924
 Alpha  occ. eigenvalues --   -0.43868  -0.43851  -0.43661  -0.43367  -0.43307
 Alpha  occ. eigenvalues --   -0.43228  -0.43138  -0.43035  -0.42998  -0.42851
 Alpha  occ. eigenvalues --   -0.42156  -0.41806  -0.41422  -0.40974  -0.40567
 Alpha  occ. eigenvalues --   -0.40356  -0.40178  -0.40070  -0.39920  -0.39690
 Alpha  occ. eigenvalues --   -0.39251  -0.39191  -0.38973  -0.38577  -0.38159
 Alpha  occ. eigenvalues --   -0.37837  -0.37404  -0.37263  -0.36824  -0.36038
 Alpha  occ. eigenvalues --   -0.35574  -0.35351  -0.34732  -0.33098  -0.32830
 Alpha  occ. eigenvalues --   -0.32325  -0.32056  -0.31583  -0.31436  -0.31263
 Alpha  occ. eigenvalues --   -0.31137  -0.29980  -0.29513  -0.29227  -0.28891
 Alpha  occ. eigenvalues --   -0.27789  -0.26752  -0.26449  -0.24627  -0.23024
 Alpha  occ. eigenvalues --   -0.22892  -0.18799
 Alpha virt. eigenvalues --   -0.06354  -0.05741  -0.04811  -0.04015  -0.01765
 Alpha virt. eigenvalues --   -0.01108   0.01636   0.03478   0.04454   0.05159
 Alpha virt. eigenvalues --    0.05355   0.05579   0.05969   0.06087   0.06427

 Mulliken charges:
               1
     1  P    0.444797
     2  C   -0.119506
     3  C   -0.145589
     4  C   -0.106918
     5  C   -0.133127
     6  C   -0.108502
     7  C   -0.148877
     8  C   -0.105962
     9  C   -0.186789
    10  C   -0.084196
    11  C   -0.152744
    12  C   -0.086025
    13  C   -0.177338
    14  P    0.318785
    15  C   -0.336929
    16  C   -0.322787
    17  C   -0.180606
    18  C   -0.030455
    19  C   -0.087045
    20  C   -0.041312
    21  C   -0.098014
    22  H    0.154001
    23  H    0.135842
    24  H    0.152641
    25  H    0.129966
    26  H    0.154569
    27  H    0.140747
    28  H    0.153276
    29  H    0.138794
    30  H    0.124806
    31  Fe  -0.221829
    32  C   -0.080404
    33  C   -0.063030
    34  C   -0.099210
    35  C   -0.112637
    36  C   -0.086164
    37  H    0.118310
    38  H    0.117292
    39  H    0.134105
    40  H    0.117303
    41  H    0.123383
    42  H    0.116910
    43  H    0.115667
    44  H    0.108516
    45  H    0.120920
    46  C   -0.382221
    47  C   -0.224047
    48  C   -0.254511
    49  H    0.129155
    50  C   -0.187575
    51  H    0.137598
    52  H    0.137524
    53  C   -0.190016
    54  H    0.172727
    55  H    0.141260
    56  C   -0.216372
    57  H    0.111188
    58  H    0.100983
    59  H    0.121035
    60  H    0.102860
    61  H    0.116519
    62  H    0.104910
    63  C    0.608589
    64  F   -0.181257
    65  F   -0.165897
    66  F   -0.181130
    67  C    0.605257
    68  F   -0.179449
    69  F   -0.169098
    70  F   -0.178490
    71  C    0.620410
    72  F   -0.176235
    73  F   -0.167434
    74  F   -0.168169
    75  C    0.616229
    76  F   -0.183689
    77  F   -0.163264
    78  F   -0.179218
    79  C   -0.368589
    80  C   -0.237173
    81  C   -0.198922
    82  H    0.133668
    83  C   -0.187010
    84  H    0.124468
    85  H    0.146916
    86  C   -0.192094
    87  H    0.115703
    88  H    0.132704
    89  C   -0.217942
    90  H    0.119071
    91  H    0.107267
    92  H    0.114544
    93  H    0.103112
    94  H    0.118668
    95  H    0.102799
 Sum of Mulliken charges =  -0.00000

 Dipole moment (field-independent basis, Debye):
    X=             -1.1165    Y=             -4.2374    Z=              2.2893  Tot=              4.9440
 Quadrupole moment (field-independent basis, Debye-Ang):
   XX=           -340.5693   YY=           -351.6671   ZZ=           -347.8429
   XY=              1.2492   XZ=              6.7270   YZ=             -3.3724

 Summary of Natural Population Analysis:

                                       Natural Population
                Natural  -----------------------------------------------
    Atom  No    Charge         Core      Valence    Rydberg      Total
 -----------------------------------------------------------------------
      P    1    0.91376      9.99787     4.04266    0.04571    14.08624
      C    2   -0.33026      1.99886     4.30326    0.02814     6.33026
      C    3   -0.16381      1.99886     4.14577    0.01919     6.16381
      C    4   -0.17124      1.99873     4.15379    0.01873     6.17124
      C    5   -0.17296      1.99890     4.15621    0.01785     6.17296
      C    6   -0.16839      1.99873     4.15011    0.01954     6.16839
      C    7   -0.17573      1.99888     4.15562    0.02122     6.17573
      C    8   -0.33155      1.99892     4.30762    0.02502     6.33155
      C    9   -0.18173      1.99889     4.16363    0.01921     6.18173
      C   10   -0.16229      1.99874     4.14444    0.01910     6.16229
      C   11   -0.19555      1.99890     4.17856    0.01809     6.19555
      C   12   -0.16003      1.99875     4.14204    0.01924     6.16003
      C   13   -0.19054      1.99889     4.17306    0.01860     6.19054
      P   14    0.79065      9.99832     4.16753    0.04350    14.20935
      C   15   -0.53029      1.99901     4.50857    0.02271     6.53029
      C   16   -0.62461      1.99926     4.61245    0.01289     6.62461
      C   17   -0.40610      1.99855     4.37726    0.03029     6.40610
      C   18   -0.05409      1.99861     4.02407    0.03140     6.05409
      C   19   -0.23324      1.99864     4.21278    0.02182     6.23324
      C   20   -0.22298      1.99866     4.20057    0.02375     6.22298
      C   21   -0.22801      1.99865     4.20318    0.02618     6.22801
      H   22    0.25361      0.00000     0.74381    0.00258     0.74639
      H   23    0.25334      0.00000     0.74415    0.00251     0.74666
      H   24    0.24461      0.00000     0.75172    0.00367     0.75539
      H   25    0.24310      0.00000     0.75399    0.00292     0.75690
      H   26    0.26562      0.00000     0.73068    0.00370     0.73438
      H   27    0.21434      0.00000     0.78288    0.00278     0.78566
      H   28    0.22075      0.00000     0.77789    0.00136     0.77925
      H   29    0.22011      0.00000     0.77833    0.00157     0.77989
      H   30    0.25958      0.00000     0.73902    0.00140     0.74042
     Fe   31    0.01783     17.99288     7.97120    0.01809    25.98217
      C   32   -0.23545      1.99866     4.21395    0.02283     6.23545
      C   33   -0.23150      1.99867     4.21003    0.02280     6.23150
      C   34   -0.24392      1.99869     4.22194    0.02329     6.24392
      C   35   -0.23941      1.99870     4.21724    0.02347     6.23941
      C   36   -0.24048      1.99868     4.21832    0.02348     6.24048
      H   37    0.24753      0.00000     0.75131    0.00116     0.75247
      H   38    0.24747      0.00000     0.75002    0.00251     0.75253
      H   39    0.24205      0.00000     0.75443    0.00351     0.75795
      H   40    0.24487      0.00000     0.75367    0.00146     0.75513
      H   41    0.25696      0.00000     0.74028    0.00275     0.74304
      H   42    0.25399      0.00000     0.74330    0.00271     0.74601
      H   43    0.25207      0.00000     0.74677    0.00116     0.74793
      H   44    0.25600      0.00000     0.74282    0.00118     0.74400
      H   45    0.24871      0.00000     0.75017    0.00113     0.75129
      C   46   -0.53806      1.99903     4.51858    0.02045     6.53806
      C   47   -0.43934      1.99910     4.42409    0.01616     6.43934
      C   48   -0.43855      1.99911     4.42315    0.01629     6.43855
      H   49    0.24820      0.00000     0.74768    0.00413     0.75180
      C   50   -0.42856      1.99914     4.41403    0.01540     6.42856
      H   51    0.21577      0.00000     0.78031    0.00392     0.78423
      H   52    0.22672      0.00000     0.77072    0.00256     0.77328
      C   53   -0.43112      1.99912     4.41658    0.01541     6.43112
      H   54    0.21193      0.00000     0.78242    0.00564     0.78807
      H   55    0.24114      0.00000     0.75614    0.00272     0.75886
      C   56   -0.43347      1.99914     4.42018    0.01415     6.43347
      H   57    0.22344      0.00000     0.77413    0.00242     0.77656
      H   58    0.21070      0.00000     0.78630    0.00300     0.78930
      H   59    0.23067      0.00000     0.76641    0.00292     0.76933
      H   60    0.21194      0.00000     0.78508    0.00297     0.78806
      H   61    0.22533      0.00000     0.77240    0.00227     0.77467
      H   62    0.21208      0.00000     0.78506    0.00286     0.78792
      C   63    1.18281      1.99897     2.74471    0.07351     4.81719
      F   64   -0.37732      1.99989     7.37231    0.00512     9.37732
      F   65   -0.37118      1.99989     7.36593    0.00536     9.37118
      F   66   -0.37467      1.99989     7.36955    0.00522     9.37467
      C   67    1.18195      1.99898     2.74540    0.07367     4.81805
      F   68   -0.37521      1.99989     7.37008    0.00524     9.37521
      F   69   -0.37264      1.99989     7.36734    0.00541     9.37264
      F   70   -0.37359      1.99989     7.36851    0.00518     9.37359
      C   71    1.18335      1.99897     2.74401    0.07367     4.81665
      F   72   -0.37887      1.99989     7.37377    0.00521     9.37887
      F   73   -0.36781      1.99989     7.36250    0.00542     9.36781
      F   74   -0.37092      1.99989     7.36566    0.00537     9.37092
      C   75    1.18240      1.99897     2.74483    0.07381     4.81760
      F   76   -0.37676      1.99989     7.37172    0.00514     9.37676
      F   77   -0.36964      1.99988     7.36436    0.00540     9.36964
      F   78   -0.37243      1.99989     7.36733    0.00521     9.37243
      C   79   -0.54109      1.99903     4.52235    0.01972     6.54109
      C   80   -0.43449      1.99912     4.41970    0.01568     6.43449
      C   81   -0.43587      1.99911     4.42061    0.01616     6.43587
      H   82    0.25334      0.00000     0.74263    0.00402     0.74666
      C   83   -0.42725      1.99914     4.41274    0.01537     6.42725
      H   84    0.21189      0.00000     0.78493    0.00318     0.78811
      H   85    0.22987      0.00000     0.76662    0.00351     0.77013
      C   86   -0.43029      1.99914     4.41581    0.01534     6.43029
      H   87    0.21506      0.00000     0.78192    0.00301     0.78494
      H   88    0.22519      0.00000     0.77195    0.00287     0.77481
      C   89   -0.43407      1.99914     4.42078    0.01415     6.43407
      H   90    0.22802      0.00000     0.76966    0.00232     0.77198
      H   91    0.21398      0.00000     0.78307    0.00296     0.78602
      H   92    0.22542      0.00000     0.77221    0.00237     0.77458
      H   93    0.21199      0.00000     0.78499    0.00302     0.78801
      H   94    0.22683      0.00000     0.77091    0.00225     0.77317
      H   95    0.21035      0.00000     0.78667    0.00299     0.78965
 =======================================================================
   * Total *   -0.00000    141.94377   300.75990    1.29633   444.00000

 Normal termination of Gaussian 16 at Fri Sep 29 19:35:07 2023.
