 Gaussian 16, Revision C.01,
 Gaussian 16:  ES64L-G16RevC.01  3-Jul-2019

 ----------------------------------------------------------------------
 #p pop=nbo NMR pbe1pbe/def2svpp empiricaldispersion=gd3bj integral=gri
 d=ultrafinegrid scf=(xqc,maxconventionalcycles=90) nosymm
 ----------------------------------------------------------------------

 ----
 Cisa
 ----
 Symbolic Z-matrix:
 Charge =  0 Multiplicity = 1

                          Input orientation:
 ---------------------------------------------------------------------
 Center     Atomic      Atomic             Coordinates (Angstroms)
 Number     Number       Type             X           Y           Z
 ---------------------------------------------------------------------
      1          6           0       -4.589090    0.396910   -3.138020
      2          6           0       -4.950080    1.764690   -2.974000
      3          6           0       -3.800180    2.560810   -3.236710
      4          6           0       -2.724360    1.684740   -3.559670
      5          6           0       -3.215960    0.348060   -3.504350
      6          1           0       -5.243400   -0.462120   -2.987300
      7          1           0       -5.928570    2.136650   -2.669820
      8          1           0       -3.753060    3.647340   -3.172420
      9          1           0       -1.705460    1.976580   -3.806920
     10          1           0       -2.650790   -0.556740   -3.724060
     11         26           0       -3.443280    1.279090   -1.679790
     12          6           0       -3.612300    2.373660    0.039090
     13          6           0       -2.256450    1.991590   -0.159730
     14          6           0       -2.196380    0.547830   -0.217200
     15          6           0       -3.550170    0.082240   -0.046660
     16          6           0       -4.406940    1.200480    0.116100
     17          1           0       -3.955390    3.406810    0.074720
     18          1           0       -3.895130   -0.946330   -0.078300
     19          1           0       -5.490780    1.159890    0.225880
     20          6           0       -1.110930    2.970380   -0.106170
     21         15           0       -0.698800   -0.502790   -0.360650
     22          7           0       -1.509970    4.303690   -0.548820
     23          1           0       -0.333050    2.585490   -0.809200
     24          6           0       -0.500160    2.934510    1.286780
     25          6           0        0.872120    2.696270    1.494210
     26          6           0       -1.327330    3.121400    2.401100
     27          6           0        1.378170    2.705670    2.803530
     28          6           0       -0.817450    3.125550    3.694080
     29          1           0       -2.401810    3.254160    2.247600
     30          6           0        0.546790    2.923810    3.896520
     31          1           0        2.438910    2.522870    2.987510
     32          1           0       -1.486560    3.279590    4.545120
     33          1           0        0.964660    2.924280    4.907060
     34         15           0        1.950310    2.378230    0.040900
     35          6           0       -1.317900    5.457020    0.294790
     36          1           0       -0.254870    5.758700    0.433810
     37          1           0       -1.843430    6.310280   -0.167250
     38          1           0       -1.753770    5.309180    1.292480
     39          6           0       -1.222250    4.566990   -1.932210
     40          1           0       -1.862550    5.383730   -2.309490
     41          1           0       -0.162120    4.866300   -2.114100
     42          1           0       -1.433680    3.671030   -2.530590
     43          6           0        3.536520    1.725130    0.749990
     44          6           0        3.337500    0.322800    1.322120
     45          6           0        4.692010    1.708780   -0.255480
     46          1           0        3.821960    2.411570    1.566860
     47          6           0        4.609620   -0.205810    1.977010
     48          1           0        2.506670    0.307930    2.045190
     49          1           0        3.040870   -0.342830    0.489160
     50          6           0        5.974840    1.206030    0.404870
     51          1           0        4.861100    2.711470   -0.682090
     52          1           0        4.431540    1.034360   -1.091740
     53          6           0        5.787070   -0.181780    1.008680
     54          1           0        4.846030    0.414870    2.862580
     55          1           0        4.434900   -1.229440    2.352940
     56          1           0        6.277180    1.917190    1.197200
     57          1           0        6.793720    1.197900   -0.335280
     58          1           0        6.710890   -0.508080    1.516370
     59          1           0        5.603290   -0.909710    0.194780
     60          6           0        2.286460    4.194020   -0.364510
     61          6           0        3.070340    4.886230    0.758340
     62          6           0        2.875640    4.578620   -1.723930
     63          1           0        1.258110    4.597210   -0.342160
     64          6           0        3.077290    6.403100    0.578150
     65          1           0        2.644580    4.638910    1.744110
     66          1           0        4.114840    4.521920    0.752760
     67          6           0        2.884940    6.098050   -1.901680
     68          1           0        2.298660    4.134470   -2.544860
     69          1           0        3.911380    4.203840   -1.814370
     70          6           0        3.637700    6.801820   -0.780670
     71          1           0        2.042290    6.782780    0.678450
     72          1           0        3.660390    6.867600    1.392170
     73          1           0        1.838960    6.460960   -1.925840
     74          1           0        3.324440    6.348200   -2.882990
     75          1           0        3.590190    7.896360   -0.913530
     76          1           0        4.708980    6.526820   -0.829870
     77          6           0       -1.406950   -2.035700   -1.238750
     78          6           0       -0.429520   -2.955910   -1.984880
     79          6           0       -2.285270   -2.961920   -0.375840
     80          1           0       -2.065150   -1.559620   -1.986960
     81          6           0       -1.190310   -3.920690   -2.896630
     82          1           0        0.289870   -2.401570   -2.590190
     83          1           0        0.162170   -3.536860   -1.254840
     84          6           0       -3.098070   -3.905180   -1.261730
     85          1           0       -2.961250   -2.417880    0.296030
     86          1           0       -1.633290   -3.568900    0.278240
     87          6           0       -2.189970   -4.772160   -2.124880
     88          1           0       -1.723430   -3.332720   -3.669890
     89          1           0       -0.472620   -4.563010   -3.436320
     90          1           0       -3.772340   -3.307030   -1.905450
     91          1           0       -3.746590   -4.537640   -0.630730
     92          1           0       -2.785800   -5.392290   -2.816610
     93          1           0       -1.637700   -5.474360   -1.471760
     94          6           0       -0.496700   -1.212990    1.355320
     95          6           0        0.679440   -2.191050    1.413610
     96          6           0       -0.454280   -0.202790    2.491100
     97          1           0       -1.424700   -1.791200    1.496500
     98          6           0        0.773120   -2.866540    2.780860
     99          1           0        1.614880   -1.647200    1.203760
    100          1           0        0.586640   -2.961130    0.630300
    101          6           0       -0.374690   -0.901880    3.844900
    102          1           0       -1.344940    0.443680    2.449200
    103          1           0        0.419350    0.453600    2.376490
    104          6           0        0.818740   -1.848180    3.914880
    105          1           0        1.660430   -3.523090    2.810260
    106          1           0       -0.106590   -3.524330    2.918950
    107          1           0       -0.318040   -0.143160    4.645190
    108          1           0       -1.306200   -1.474170    4.020360
    109          1           0        1.756250   -1.262230    3.844030
    110          1           0        0.847450   -2.364120    4.890250
 ---------------------------------------------------------------------

 SCF Done:  E(RPBE1PBE) =  -3673.60986456     A.U. after   19 cycles

      1  C    Isotropic =   125.1675   Anisotropy =    82.7095

      2  C    Isotropic =   125.4771   Anisotropy =    80.7815

      3  C    Isotropic =   123.3551   Anisotropy =    83.8516

      4  C    Isotropic =   123.8446   Anisotropy =    83.3454

      5  C    Isotropic =   121.7807   Anisotropy =    86.8381

      6  H    Isotropic =    28.3804   Anisotropy =     5.5626

      7  H    Isotropic =    28.3302   Anisotropy =     7.0322

      8  H    Isotropic =    28.1694   Anisotropy =     4.2442

      9  H    Isotropic =    28.3628   Anisotropy =     3.8306

     10  H    Isotropic =    28.4208   Anisotropy =     5.7704

     11  Fe   Isotropic = -4960.5030   Anisotropy =  9064.2619

     12  C    Isotropic =   124.8803   Anisotropy =    80.9968

     13  C    Isotropic =    92.1650   Anisotropy =    85.6287

     14  C    Isotropic =   116.0992   Anisotropy =    83.7241

     15  C    Isotropic =   123.0859   Anisotropy =    72.0711

     16  C    Isotropic =   123.8583   Anisotropy =    79.1088

     17  H    Isotropic =    27.7652   Anisotropy =     3.8264

     18  H    Isotropic =    28.0683   Anisotropy =     8.0889

     19  H    Isotropic =    28.1670   Anisotropy =     7.7127

     20  C    Isotropic =   135.1024   Anisotropy =    33.4952

     21  P    Isotropic =   425.0771   Anisotropy =    47.9543

     22  N    Isotropic =   251.0163   Anisotropy =    64.4970

     23  H    Isotropic =    26.0051   Anisotropy =     9.6989

     24  C    Isotropic =    48.6405   Anisotropy =   193.4520

     25  C    Isotropic =    55.7649   Anisotropy =   193.8143

     26  C    Isotropic =    59.5211   Anisotropy =   186.4355

     27  C    Isotropic =    63.1924   Anisotropy =   183.8432

     28  C    Isotropic =    67.9183   Anisotropy =   174.9899

     29  H    Isotropic =    24.8279   Anisotropy =    11.7645

     30  C    Isotropic =    68.4925   Anisotropy =   173.3378

     31  H    Isotropic =    24.6995   Anisotropy =     9.1653

     32  H    Isotropic =    25.0671   Anisotropy =     5.0097

     33  H    Isotropic =    24.9570   Anisotropy =     4.4867

     34  P    Isotropic =   419.2665   Anisotropy =    22.4593

     35  C    Isotropic =   151.0884   Anisotropy =    41.5321

     36  H    Isotropic =    30.1072   Anisotropy =     8.1286

     37  H    Isotropic =    29.8109   Anisotropy =    11.3118

     38  H    Isotropic =    29.3453   Anisotropy =     7.7988

     39  C    Isotropic =   147.1430   Anisotropy =    51.3658

     40  H    Isotropic =    29.3942   Anisotropy =     9.6825

     41  H    Isotropic =    29.0673   Anisotropy =     8.4626

     42  H    Isotropic =    28.2972   Anisotropy =     8.3445

     43  C    Isotropic =   161.5596   Anisotropy =     8.9526

     44  C    Isotropic =   158.8476   Anisotropy =    10.5113

     45  C    Isotropic =   163.0542   Anisotropy =     6.2930

     46  H    Isotropic =    29.9190   Anisotropy =     3.4461

     47  C    Isotropic =   165.6568   Anisotropy =     5.2718

     48  H    Isotropic =    30.2108   Anisotropy =     8.1700

     49  H    Isotropic =    30.3484   Anisotropy =     8.2486

     50  C    Isotropic =   164.2327   Anisotropy =     5.0411

     51  H    Isotropic =    30.1079   Anisotropy =     8.9304

     52  H    Isotropic =    30.4869   Anisotropy =     4.8186

     53  C    Isotropic =   165.3746   Anisotropy =     5.3279

     54  H    Isotropic =    30.5574   Anisotropy =     7.3692

     55  H    Isotropic =    30.2122   Anisotropy =     8.5740

     56  H    Isotropic =    30.4753   Anisotropy =     7.9678

     57  H    Isotropic =    30.1347   Anisotropy =    10.9787

     58  H    Isotropic =    30.2416   Anisotropy =    11.6630

     59  H    Isotropic =    30.5271   Anisotropy =     7.9278

     60  C    Isotropic =   154.3919   Anisotropy =    23.9572

     61  C    Isotropic =   165.8768   Anisotropy =     5.7230

     62  C    Isotropic =   160.0403   Anisotropy =    11.7826

     63  H    Isotropic =    30.5188   Anisotropy =    10.1782

     64  C    Isotropic =   163.7626   Anisotropy =     5.6937

     65  H    Isotropic =    30.0510   Anisotropy =    10.2690

     66  H    Isotropic =    30.6730   Anisotropy =     5.9014

     67  C    Isotropic =   162.7747   Anisotropy =     6.4755

     68  H    Isotropic =    29.8263   Anisotropy =     5.3413

     69  H    Isotropic =    30.4086   Anisotropy =     5.9727

     70  C    Isotropic =   165.0625   Anisotropy =     5.6794

     71  H    Isotropic =    30.9791   Anisotropy =     5.7109

     72  H    Isotropic =    30.4339   Anisotropy =    10.7567

     73  H    Isotropic =    30.4793   Anisotropy =     6.4031

     74  H    Isotropic =    30.2409   Anisotropy =    10.7463

     75  H    Isotropic =    30.4120   Anisotropy =    11.7531

     76  H    Isotropic =    30.7028   Anisotropy =     9.1390

     77  C    Isotropic =   151.7288   Anisotropy =    27.0857

     78  C    Isotropic =   156.4415   Anisotropy =    17.0412

     79  C    Isotropic =   157.6721   Anisotropy =    13.8860

     80  H    Isotropic =    29.4791   Anisotropy =     7.5601

     81  C    Isotropic =   161.7108   Anisotropy =     8.2611

     82  H    Isotropic =    30.0643   Anisotropy =     6.4183

     83  H    Isotropic =    30.6002   Anisotropy =     5.1390

     84  C    Isotropic =   162.5606   Anisotropy =     8.2066

     85  H    Isotropic =    29.6137   Anisotropy =     5.4690

     86  H    Isotropic =    30.7515   Anisotropy =     5.3318

     87  C    Isotropic =   164.7123   Anisotropy =     3.9603

     88  H    Isotropic =    30.3871   Anisotropy =     6.1325

     89  H    Isotropic =    30.1525   Anisotropy =    10.7663

     90  H    Isotropic =    30.2708   Anisotropy =     6.5102

     91  H    Isotropic =    30.0856   Anisotropy =    10.7742

     92  H    Isotropic =    30.2518   Anisotropy =    11.4838

     93  H    Isotropic =    30.6241   Anisotropy =     8.8781

     94  C    Isotropic =   157.0842   Anisotropy =    19.0687

     95  C    Isotropic =   164.4682   Anisotropy =    11.1475

     96  C    Isotropic =   171.7641   Anisotropy =     8.7399

     97  H    Isotropic =    30.6106   Anisotropy =     8.1218

     98  C    Isotropic =   164.9155   Anisotropy =     4.9635

     99  H    Isotropic =    30.7004   Anisotropy =     9.8303

    100  H    Isotropic =    30.7217   Anisotropy =     8.5089

    101  C    Isotropic =   163.4688   Anisotropy =    10.4634

    102  H    Isotropic =    32.7725   Anisotropy =     8.3777

    103  H    Isotropic =    32.7412   Anisotropy =    18.3255

    104  C    Isotropic =   166.9025   Anisotropy =     7.9790

    105  H    Isotropic =    30.5489   Anisotropy =    10.4451

    106  H    Isotropic =    30.9334   Anisotropy =     9.1454

    107  H    Isotropic =    31.2399   Anisotropy =     6.6020

    108  H    Isotropic =    31.4044   Anisotropy =     8.3557

    109  H    Isotropic =    31.1083   Anisotropy =     5.9235

    110  H    Isotropic =    30.7872   Anisotropy =    12.0736

 Alpha  occ. eigenvalues -- -256.34602 -77.17883 -77.17358 -30.12059 -25.96914
 Alpha  occ. eigenvalues --  -25.95025 -25.94992 -14.37968 -10.26245 -10.24723
 Alpha  occ. eigenvalues --  -10.24359 -10.24112 -10.24047 -10.23998 -10.23849
 Alpha  occ. eigenvalues --  -10.23820 -10.23803 -10.23770 -10.23704 -10.23704
 Alpha  occ. eigenvalues --  -10.23674 -10.23652 -10.23580 -10.23530 -10.23439
 Alpha  occ. eigenvalues --  -10.23304 -10.23287 -10.23284 -10.23060 -10.22863
 Alpha  occ. eigenvalues --  -10.22582 -10.22301 -10.22232 -10.22218 -10.22206
 Alpha  occ. eigenvalues --  -10.22143 -10.22099 -10.22042 -10.21994 -10.21992
 Alpha  occ. eigenvalues --  -10.21954 -10.21933 -10.21923 -10.21895 -10.21838
 Alpha  occ. eigenvalues --  -10.21831 -10.21581 -10.21499 -10.21439 -10.21086
 Alpha  occ. eigenvalues --  -10.20418  -6.58838  -6.58261  -4.72889  -4.72858
 Alpha  occ. eigenvalues --   -4.72372  -4.72326  -4.72270  -4.71799  -3.45200
 Alpha  occ. eigenvalues --   -2.24173  -2.19445  -2.19382  -0.94564  -0.91322
 Alpha  occ. eigenvalues --   -0.89580  -0.87838  -0.85642  -0.85223  -0.84921
 Alpha  occ. eigenvalues --   -0.84159  -0.79606  -0.78342  -0.77055  -0.75885
 Alpha  occ. eigenvalues --   -0.75504  -0.75395  -0.75282  -0.75093  -0.74703
 Alpha  occ. eigenvalues --   -0.74350  -0.74221  -0.72716  -0.72564  -0.72390
 Alpha  occ. eigenvalues --   -0.71436  -0.68959  -0.65931  -0.64529  -0.62952
 Alpha  occ. eigenvalues --   -0.62064  -0.61678  -0.61627  -0.61486  -0.61117
 Alpha  occ. eigenvalues --   -0.60982  -0.60463  -0.59080  -0.57692  -0.56856
 Alpha  occ. eigenvalues --   -0.56703  -0.56491  -0.55911  -0.55425  -0.55148
 Alpha  occ. eigenvalues --   -0.55094  -0.54700  -0.54225  -0.52988  -0.51538
 Alpha  occ. eigenvalues --   -0.50259  -0.49590  -0.49197  -0.48802  -0.48587
 Alpha  occ. eigenvalues --   -0.47551  -0.47005  -0.46286  -0.46057  -0.45594
 Alpha  occ. eigenvalues --   -0.45499  -0.45182  -0.45111  -0.44933  -0.44758
 Alpha  occ. eigenvalues --   -0.44632  -0.44443  -0.44275  -0.44175  -0.43457
 Alpha  occ. eigenvalues --   -0.43416  -0.42844  -0.42443  -0.42064  -0.41700
 Alpha  occ. eigenvalues --   -0.41304  -0.40891  -0.40345  -0.40218  -0.40084
 Alpha  occ. eigenvalues --   -0.39600  -0.39424  -0.39335  -0.39236  -0.39144
 Alpha  occ. eigenvalues --   -0.39052  -0.38932  -0.38738  -0.38702  -0.38272
 Alpha  occ. eigenvalues --   -0.38011  -0.37827  -0.37498  -0.37280  -0.37258
 Alpha  occ. eigenvalues --   -0.36831  -0.36355  -0.36185  -0.35850  -0.35349
 Alpha  occ. eigenvalues --   -0.35215  -0.35061  -0.34923  -0.34906  -0.34563
 Alpha  occ. eigenvalues --   -0.34422  -0.34097  -0.33856  -0.32812  -0.32741
 Alpha  occ. eigenvalues --   -0.32417  -0.31946  -0.31172  -0.31084  -0.30830
 Alpha  occ. eigenvalues --   -0.30607  -0.29999  -0.29898  -0.28794  -0.28589
 Alpha  occ. eigenvalues --   -0.27928  -0.27273  -0.26917  -0.26348  -0.26050
 Alpha  occ. eigenvalues --   -0.25409  -0.24055  -0.22318  -0.21342  -0.21268
 Alpha  occ. eigenvalues --   -0.20541  -0.19650
 Alpha virt. eigenvalues --   -0.01697  -0.01236   0.00307   0.00854   0.03699
 Alpha virt. eigenvalues --    0.04583   0.05181   0.05785   0.06141   0.06259
 Alpha virt. eigenvalues --    0.06761   0.06891   0.06996   0.07328   0.07520

 Mulliken charges:
               1
     1  C   -0.074956
     2  C   -0.079513
     3  C   -0.086885
     4  C   -0.118212
     5  C   -0.114783
     6  H    0.113741
     7  H    0.114325
     8  H    0.117371
     9  H    0.129480
    10  H    0.124299
    11  Fe  -0.226053
    12  C   -0.069067
    13  C   -0.084998
    14  C   -0.102841
    15  C   -0.135697
    16  C   -0.026255
    17  H    0.104660
    18  H    0.115432
    19  H    0.102788
    20  C    0.030315
    21  P    0.355718
    22  N   -0.370150
    23  H    0.157265
    24  C   -0.010706
    25  C   -0.145423
    26  C   -0.152211
    27  C   -0.162420
    28  C   -0.077163
    29  H    0.112965
    30  C   -0.070290
    31  H    0.103250
    32  H    0.091457
    33  H    0.090641
    34  P    0.321210
    35  C   -0.226229
    36  H    0.124516
    37  H    0.121580
    38  H    0.136106
    39  C   -0.276526
    40  H    0.123158
    41  H    0.123025
    42  H    0.171097
    43  C   -0.396774
    44  C   -0.282677
    45  C   -0.180321
    46  H    0.133741
    47  C   -0.188516
    48  H    0.167390
    49  H    0.153536
    50  C   -0.198994
    51  H    0.138640
    52  H    0.114083
    53  C   -0.212345
    54  H    0.099225
    55  H    0.119036
    56  H    0.101476
    57  H    0.115742
    58  H    0.115009
    59  H    0.105675
    60  C   -0.420887
    61  C   -0.216801
    62  C   -0.139111
    63  H    0.167868
    64  C   -0.197874
    65  H    0.141749
    66  H    0.117647
    67  C   -0.232336
    68  H    0.118797
    69  H    0.118113
    70  C   -0.208676
    71  H    0.117243
    72  H    0.109924
    73  H    0.110710
    74  H    0.114978
    75  H    0.113890
    76  H    0.101282
    77  C   -0.420830
    78  C   -0.150166
    79  C   -0.263719
    80  H    0.164831
    81  C   -0.224678
    82  H    0.114986
    83  H    0.119357
    84  C   -0.181705
    85  H    0.154260
    86  H    0.121595
    87  C   -0.207309
    88  H    0.107993
    89  H    0.114416
    90  H    0.105021
    91  H    0.110062
    92  H    0.113832
    93  H    0.103115
    94  C   -0.375584
    95  C   -0.214164
    96  C   -0.256005
    97  H    0.124199
    98  C   -0.194450
    99  H    0.131768
   100  H    0.127826
   101  C   -0.184578
   102  H    0.160364
   103  H    0.195014
   104  C   -0.230669
   105  H    0.109225
   106  H    0.099876
   107  H    0.110161
   108  H    0.096157
   109  H    0.115173
   110  H    0.110165
 Sum of Mulliken charges =  -0.00000

 Dipole moment (field-independent basis, Debye):
    X=             -0.1221    Y=              0.6387    Z=              1.1515  Tot=              1.3224
 Quadrupole moment (field-independent basis, Debye-Ang):
   XX=           -299.9934   YY=           -303.8925   ZZ=           -314.0424
   XY=              0.4610   XZ=             -0.9659   YZ=              2.7933

 Summary of Natural Population Analysis:

                                       Natural Population
                Natural  -----------------------------------------------
    Atom  No    Charge         Core      Valence    Rydberg      Total
 -----------------------------------------------------------------------
      C    1   -0.24136      1.99867     4.21981    0.02289     6.24136
      C    2   -0.23610      1.99866     4.21463    0.02281     6.23610
      C    3   -0.24221      1.99868     4.22111    0.02242     6.24221
      C    4   -0.25493      1.99870     4.23368    0.02254     6.25493
      C    5   -0.24569      1.99870     4.22285    0.02415     6.24569
      H    6    0.24543      0.00000     0.75338    0.00120     0.75457
      H    7    0.24569      0.00000     0.75315    0.00116     0.75431
      H    8    0.24750      0.00000     0.75105    0.00145     0.75250
      H    9    0.24673      0.00000     0.75203    0.00125     0.75327
      H   10    0.24202      0.00000     0.75627    0.00170     0.75798
     Fe   11    0.02093     17.99305     7.96811    0.01790    25.97907
      C   12   -0.23162      1.99862     4.21024    0.02275     6.23162
      C   13   -0.05431      1.99858     4.02000    0.03573     6.05431
      C   14   -0.37272      1.99862     4.34217    0.03192     6.37272
      C   15   -0.22441      1.99866     4.20132    0.02444     6.22441
      C   16   -0.21967      1.99865     4.19766    0.02336     6.21967
      H   17    0.25785      0.00000     0.73987    0.00228     0.74215
      H   18    0.23889      0.00000     0.75880    0.00231     0.76111
      H   19    0.24441      0.00000     0.75432    0.00127     0.75559
      C   20   -0.05729      1.99887     4.03103    0.02739     6.05729
      P   21    0.81551      9.99826     4.14616    0.04007    14.18449
      N   22   -0.56953      1.99922     5.55635    0.01396     7.56953
      H   23    0.25700      0.00000     0.73919    0.00381     0.74300
      C   24   -0.03116      1.99881     4.00941    0.02294     6.03116
      C   25   -0.32383      1.99884     4.29659    0.02840     6.32383
      C   26   -0.21419      1.99888     4.19844    0.01687     6.21419
      C   27   -0.23068      1.99888     4.21296    0.01883     6.23068
      C   28   -0.21315      1.99892     4.19774    0.01649     6.21315
      H   29    0.23589      0.00000     0.76214    0.00197     0.76411
      C   30   -0.21455      1.99891     4.19906    0.01658     6.21455
      H   31    0.22676      0.00000     0.77047    0.00277     0.77324
      H   32    0.22554      0.00000     0.77281    0.00165     0.77446
      H   33    0.22491      0.00000     0.77336    0.00173     0.77509
      P   34    0.81424      9.99824     4.14932    0.03820    14.18576
      C   35   -0.39115      1.99930     4.37790    0.01394     6.39115
      H   36    0.17159      0.00000     0.82431    0.00410     0.82841
      H   37    0.20806      0.00000     0.79053    0.00141     0.79194
      H   38    0.21392      0.00000     0.78465    0.00143     0.78608
      C   39   -0.38366      1.99928     4.37011    0.01427     6.38366
      H   40    0.20366      0.00000     0.79487    0.00146     0.79634
      H   41    0.17109      0.00000     0.82435    0.00456     0.82891
      H   42    0.20766      0.00000     0.78893    0.00342     0.79234
      C   43   -0.53860      1.99905     4.52035    0.01919     6.53860
      C   44   -0.44318      1.99911     4.42848    0.01560     6.44318
      C   45   -0.43065      1.99912     4.41489    0.01664     6.43065
      H   46    0.23126      0.00000     0.76421    0.00453     0.76874
      C   47   -0.42862      1.99913     4.41430    0.01519     6.42862
      H   48    0.23009      0.00000     0.76712    0.00279     0.76991
      H   49    0.22761      0.00000     0.76872    0.00367     0.77239
      C   50   -0.42778      1.99914     4.41359    0.01504     6.42778
      H   51    0.22365      0.00000     0.77361    0.00274     0.77635
      H   52    0.22274      0.00000     0.77387    0.00340     0.77726
      C   53   -0.43280      1.99914     4.41960    0.01406     6.43280
      H   54    0.21048      0.00000     0.78659    0.00293     0.78952
      H   55    0.22613      0.00000     0.77161    0.00226     0.77387
      H   56    0.21093      0.00000     0.78613    0.00294     0.78907
      H   57    0.22591      0.00000     0.77182    0.00227     0.77409
      H   58    0.22432      0.00000     0.77340    0.00228     0.77568
      H   59    0.21324      0.00000     0.78380    0.00296     0.78676
      C   60   -0.52147      1.99901     4.50076    0.02170     6.52147
      C   61   -0.44206      1.99911     4.42681    0.01615     6.44206
      C   62   -0.42814      1.99911     4.41230    0.01674     6.42814
      H   63    0.24502      0.00000     0.74958    0.00540     0.75498
      C   64   -0.42586      1.99913     4.41145    0.01528     6.42586
      H   65    0.23431      0.00000     0.76284    0.00285     0.76569
      H   66    0.21094      0.00000     0.78576    0.00330     0.78906
      C   67   -0.42897      1.99914     4.41484    0.01500     6.42897
      H   68    0.23018      0.00000     0.76710    0.00272     0.76982
      H   69    0.21263      0.00000     0.78453    0.00284     0.78737
      C   70   -0.43337      1.99913     4.42011    0.01414     6.43337
      H   71    0.21079      0.00000     0.78606    0.00315     0.78921
      H   72    0.22313      0.00000     0.77439    0.00248     0.77687
      H   73    0.21080      0.00000     0.78620    0.00301     0.78920
      H   74    0.22569      0.00000     0.77206    0.00225     0.77431
      H   75    0.22394      0.00000     0.77376    0.00230     0.77606
      H   76    0.21033      0.00000     0.78666    0.00302     0.78967
      C   77   -0.53018      1.99903     4.50816    0.02298     6.53018
      C   78   -0.42445      1.99912     4.40866    0.01668     6.42445
      C   79   -0.44553      1.99912     4.43013    0.01627     6.44553
      H   80    0.24624      0.00000     0.74779    0.00597     0.75376
      C   81   -0.42823      1.99914     4.41425    0.01484     6.42823
      H   82    0.23044      0.00000     0.76675    0.00281     0.76956
      H   83    0.21012      0.00000     0.78714    0.00274     0.78988
      C   84   -0.42437      1.99913     4.41020    0.01503     6.42437
      H   85    0.22154      0.00000     0.77571    0.00275     0.77846
      H   86    0.21843      0.00000     0.77829    0.00328     0.78157
      C   87   -0.43271      1.99913     4.41955    0.01403     6.43271
      H   88    0.20959      0.00000     0.78748    0.00293     0.79041
      H   89    0.22537      0.00000     0.77235    0.00228     0.77463
      H   90    0.20952      0.00000     0.78758    0.00290     0.79048
      H   91    0.22280      0.00000     0.77471    0.00248     0.77720
      H   92    0.22369      0.00000     0.77400    0.00231     0.77631
      H   93    0.21159      0.00000     0.78547    0.00294     0.78841
      C   94   -0.52523      1.99904     4.50443    0.02176     6.52523
      C   95   -0.43214      1.99908     4.41752    0.01554     6.43214
      C   96   -0.43697      1.99906     4.41979    0.01811     6.43697
      H   97    0.23230      0.00000     0.76241    0.00529     0.76770
      C   98   -0.42652      1.99914     4.41232    0.01506     6.42652
      H   99    0.21844      0.00000     0.77652    0.00503     0.78156
      H  100    0.21989      0.00000     0.77724    0.00287     0.78011
      C  101   -0.42429      1.99913     4.40970    0.01546     6.42429
      H  102    0.23677      0.00000     0.75917    0.00405     0.76323
      H  103    0.21485      0.00000     0.77779    0.00736     0.78515
      C  104   -0.43164      1.99913     4.41863    0.01389     6.43164
      H  105    0.22224      0.00000     0.77546    0.00230     0.77776
      H  106    0.20992      0.00000     0.78715    0.00293     0.79008
      H  107    0.22369      0.00000     0.77396    0.00234     0.77631
      H  108    0.20874      0.00000     0.78826    0.00300     0.79126
      H  109    0.20830      0.00000     0.78857    0.00313     0.79170
      H  110    0.22207      0.00000     0.77561    0.00232     0.77793
 =======================================================================
   * Total *   -0.00000    125.94456   256.94121    1.11423   384.00000

 Normal termination of Gaussian 16 at Sat Aug 12 03:30:39 2023.
