 Gaussian 16, Revision C.01,
 Gaussian 16:  ES64L-G16RevC.01  3-Jul-2019

 ----------------------------------------------------------------------
 #p pop=nbo NMR pbe1pbe/def2svpp empiricaldispersion=gd3bj integral=gri
 d=ultrafinegrid scf=(xqc,maxconventionalcycles=90) nosymm
 ----------------------------------------------------------------------

 ----
 Cisa
 ----
 Symbolic Z-matrix:
 Charge =  0 Multiplicity = 1

                          Input orientation:
 ---------------------------------------------------------------------
 Center     Atomic      Atomic             Coordinates (Angstroms)
 Number     Number       Type             X           Y           Z
 ---------------------------------------------------------------------
      1          6           0       -3.573830   -0.877380   -1.270680
      2          6           0       -4.295260   -1.378630   -0.147740
      3          6           0       -5.128580   -0.333590    0.342640
      4          6           0       -4.921240    0.814850   -0.473210
      5          6           0       -3.964230    0.474780   -1.472610
      6          1           0       -2.846200   -1.428260   -1.865880
      7          1           0       -4.220250   -2.380970    0.270930
      8          1           0       -5.786620   -0.392220    1.209910
      9          1           0       -5.395500    1.787820   -0.342430
     10          1           0       -3.593660    1.134320   -2.257230
     11         26           0       -3.167340    0.237800    0.410180
     12          6           0       -2.369100    1.929370    1.222500
     13          6           0       -1.358140    1.189410    0.534440
     14          6           0       -1.295710   -0.110640    1.150060
     15          6           0       -2.275040   -0.154850    2.197500
     16          6           0       -2.924290    1.106930    2.243100
     17          1           0       -2.700650    2.938820    0.984130
     18          1           0       -2.478650   -1.010420    2.840210
     19          1           0       -3.739540    1.383240    2.911580
     20          6           0       -0.526580    1.671660   -0.623480
     21          1           0       -0.517970    0.861270   -1.374300
     22         15           0        0.017430   -1.294010    0.811180
     23          6           0       -1.184620    2.889760   -1.271850
     24          1           0       -0.771200    3.111010   -2.264190
     25          1           0       -2.255440    2.669940   -1.407180
     26          1           0       -1.108070    3.797680   -0.657360
     27         15           0        1.323750    1.750740   -0.172060
     28          6           0        2.136930    2.645020   -1.645780
     29          6           0        1.490180    2.769940    1.425450
     30          6           0        0.559170    3.981740    1.484980
     31          1           0       -0.499170    3.682870    1.489510
     32          1           0        0.747870    4.524530    2.429530
     33          1           0        0.727620    4.691070    0.660600
     34          6           0        2.935510    3.240760    1.606170
     35          1           0        3.032660    3.684210    2.613530
     36          1           0        3.655370    2.408400    1.544180
     37          1           0        3.222900    4.018880    0.882770
     38          6           0        1.161360    1.829510    2.592750
     39          1           0        1.323730    2.368860    3.544180
     40          1           0        0.113640    1.493870    2.572920
     41          1           0        1.819100    0.939260    2.586130
     42          6           0        1.689210    1.867900   -2.893040
     43          1           0        0.622740    1.999160   -3.130540
     44          1           0        2.264580    2.221080   -3.767660
     45          1           0        1.882130    0.785130   -2.778960
     46          6           0        3.667010    2.552660   -1.583540
     47          1           0        4.094580    3.033330   -0.693480
     48          1           0        4.031740    1.521280   -1.630830
     49          1           0        4.075440    3.080810   -2.463960
     50          6           0        1.799410    4.135800   -1.770500
     51          1           0        2.209120    4.506720   -2.727890
     52          1           0        0.727170    4.362530   -1.764730
     53          1           0        2.277040    4.723490   -0.970240
     54          6           0       -0.571370   -2.406840   -0.506400
     55          6           0       -1.591110   -3.339500   -0.278160
     56          6           0       -0.026920   -2.279390   -1.789340
     57          6           0       -2.055790   -4.135450   -1.321810
     58          1           0       -2.025630   -3.442110    0.720190
     59          6           0       -0.505290   -3.065820   -2.837440
     60          1           0        0.783260   -1.559550   -1.956010
     61          6           0       -1.518010   -3.995550   -2.603230
     62          1           0       -2.849370   -4.865410   -1.138190
     63          1           0       -0.080140   -2.957700   -3.839250
     64          1           0       -1.890210   -4.617600   -3.422220
     65          6           0        0.117500   -2.312390    2.324180
     66          6           0        0.313570   -3.698320    2.269510
     67          6           0        0.172020   -1.667870    3.570300
     68          6           0        0.542090   -4.426240    3.437740
     69          1           0        0.283310   -4.224780    1.312200
     70          6           0        0.398230   -2.397820    4.733880
     71          1           0        0.037400   -0.585130    3.634010
     72          6           0        0.583640   -3.780090    4.671170
     73          1           0        0.686610   -5.508710    3.378850
     74          1           0        0.430550   -1.882270    5.697910
     75          1           0        0.760850   -4.352620    5.585950
 ---------------------------------------------------------------------

 SCF Done:  E(RPBE1PBE) =  -3186.71575806     A.U. after   18 cycles

      1  C    Isotropic =   122.6269   Anisotropy =    87.5056

      2  C    Isotropic =   123.4752   Anisotropy =    81.0419

      3  C    Isotropic =   125.4503   Anisotropy =    79.7925

      4  C    Isotropic =   126.0678   Anisotropy =    81.1309

      5  C    Isotropic =   122.0315   Anisotropy =    87.4226

      6  H    Isotropic =    30.8991   Anisotropy =    13.7864

      7  H    Isotropic =    28.6288   Anisotropy =     4.6440

      8  H    Isotropic =    28.5913   Anisotropy =     6.5937

      9  H    Isotropic =    28.6200   Anisotropy =     6.3757

     10  H    Isotropic =    28.8558   Anisotropy =     3.6080

     11  Fe   Isotropic = -5081.5567   Anisotropy =  9104.4342

     12  C    Isotropic =   122.2846   Anisotropy =    77.8919

     13  C    Isotropic =   102.6572   Anisotropy =    86.9797

     14  C    Isotropic =   111.9546   Anisotropy =    88.4761

     15  C    Isotropic =   116.9422   Anisotropy =    81.9207

     16  C    Isotropic =   125.1105   Anisotropy =    78.8801

     17  H    Isotropic =    28.2021   Anisotropy =     4.0080

     18  H    Isotropic =    27.9807   Anisotropy =     4.4706

     19  H    Isotropic =    28.3590   Anisotropy =     7.6023

     20  C    Isotropic =   161.3976   Anisotropy =    16.2877

     21  H    Isotropic =    28.3140   Anisotropy =     7.3762

     22  P    Isotropic =   426.7122   Anisotropy =    83.1528

     23  C    Isotropic =   170.6049   Anisotropy =     7.3932

     24  H    Isotropic =    29.8663   Anisotropy =     6.6597

     25  H    Isotropic =    29.6295   Anisotropy =     8.1512

     26  H    Isotropic =    29.9730   Anisotropy =     5.4740

     27  P    Isotropic =   392.1964   Anisotropy =    49.7873

     28  C    Isotropic =   160.5760   Anisotropy =    18.7432

     29  C    Isotropic =   158.7026   Anisotropy =    19.0659

     30  C    Isotropic =   162.4750   Anisotropy =    26.4734

     31  H    Isotropic =    30.1287   Anisotropy =     8.8223

     32  H    Isotropic =    31.1820   Anisotropy =    10.0215

     33  H    Isotropic =    30.1392   Anisotropy =     5.2995

     34  C    Isotropic =   158.2743   Anisotropy =    32.2937

     35  H    Isotropic =    31.1632   Anisotropy =     9.7397

     36  H    Isotropic =    30.5915   Anisotropy =     7.5405

     37  H    Isotropic =    30.4297   Anisotropy =     7.5248

     38  C    Isotropic =   156.9554   Anisotropy =    37.0560

     39  H    Isotropic =    31.5582   Anisotropy =     8.9090

     40  H    Isotropic =    31.5484   Anisotropy =    14.5129

     41  H    Isotropic =    30.4773   Anisotropy =     6.6223

     42  C    Isotropic =   160.7286   Anisotropy =    36.5774

     43  H    Isotropic =    30.2714   Anisotropy =     4.6730

     44  H    Isotropic =    30.9076   Anisotropy =     9.8040

     45  H    Isotropic =    30.2486   Anisotropy =     7.8966

     46  C    Isotropic =   157.5188   Anisotropy =    40.2544

     47  H    Isotropic =    30.2538   Anisotropy =     6.4665

     48  H    Isotropic =    30.7159   Anisotropy =     8.3237

     49  H    Isotropic =    31.0938   Anisotropy =     9.9387

     50  C    Isotropic =   161.8648   Anisotropy =    27.4001

     51  H    Isotropic =    30.8952   Anisotropy =    10.2458

     52  H    Isotropic =    29.7133   Anisotropy =     5.8024

     53  H    Isotropic =    30.2337   Anisotropy =     6.2498

     54  C    Isotropic =    52.0075   Anisotropy =   198.9551

     55  C    Isotropic =    54.1071   Anisotropy =   188.5108

     56  C    Isotropic =    57.0438   Anisotropy =   173.7491

     57  C    Isotropic =    65.8146   Anisotropy =   177.6797

     58  H    Isotropic =    23.3908   Anisotropy =     8.8405

     59  C    Isotropic =    66.6612   Anisotropy =   175.3490

     60  H    Isotropic =    23.8137   Anisotropy =     7.4616

     61  C    Isotropic =    64.9814   Anisotropy =   180.4212

     62  H    Isotropic =    24.4433   Anisotropy =     5.8363

     63  H    Isotropic =    24.4974   Anisotropy =     5.7993

     64  H    Isotropic =    24.5618   Anisotropy =     3.6451

     65  C    Isotropic =    55.3481   Anisotropy =   184.6974

     66  C    Isotropic =    66.1564   Anisotropy =   175.3881

     67  C    Isotropic =    64.4140   Anisotropy =   177.5635

     68  C    Isotropic =    66.8819   Anisotropy =   173.4895

     69  H    Isotropic =    24.7065   Anisotropy =    13.1457

     70  C    Isotropic =    67.4076   Anisotropy =   173.1751

     71  H    Isotropic =    24.8142   Anisotropy =    12.0466

     72  C    Isotropic =    69.8215   Anisotropy =   171.0458

     73  H    Isotropic =    24.8480   Anisotropy =     6.1251

     74  H    Isotropic =    24.8973   Anisotropy =     7.0715

     75  H    Isotropic =    25.0376   Anisotropy =     3.4036

 Alpha  occ. eigenvalues -- -256.34919 -77.18824 -77.17155 -30.12382 -25.97235
 Alpha  occ. eigenvalues --  -25.95338 -25.95326 -10.25310 -10.24962 -10.24724
 Alpha  occ. eigenvalues --  -10.24623 -10.24574 -10.24537 -10.24419 -10.24405
 Alpha  occ. eigenvalues --  -10.24334 -10.24316 -10.24269 -10.24255 -10.24252
 Alpha  occ. eigenvalues --  -10.24183 -10.24101 -10.23998 -10.23942 -10.23850
 Alpha  occ. eigenvalues --  -10.23690 -10.23528 -10.23242 -10.23213 -10.23171
 Alpha  occ. eigenvalues --  -10.23132 -10.22987 -10.22059 -10.21919 -10.21549
 Alpha  occ. eigenvalues --  -10.21389 -10.21226 -10.21120 -10.20808  -6.59873
 Alpha  occ. eigenvalues --   -6.58078  -4.73928  -4.73915  -4.73385  -4.72142
 Alpha  occ. eigenvalues --   -4.72107  -4.71563  -3.45556  -2.24543  -2.19783
 Alpha  occ. eigenvalues --   -2.19760  -0.92078  -0.90163  -0.88216  -0.86983
 Alpha  occ. eigenvalues --   -0.83747  -0.81758  -0.80100  -0.78654  -0.76860
 Alpha  occ. eigenvalues --   -0.76033  -0.75563  -0.73597  -0.72757  -0.72602
 Alpha  occ. eigenvalues --   -0.71733  -0.70075  -0.69573  -0.68730  -0.68663
 Alpha  occ. eigenvalues --   -0.66118  -0.65502  -0.62569  -0.61688  -0.60966
 Alpha  occ. eigenvalues --   -0.60726  -0.58690  -0.56461  -0.55599  -0.55463
 Alpha  occ. eigenvalues --   -0.55287  -0.54719  -0.53871  -0.52972  -0.52851
 Alpha  occ. eigenvalues --   -0.51310  -0.49740  -0.47582  -0.47502  -0.46654
 Alpha  occ. eigenvalues --   -0.46628  -0.46305  -0.45751  -0.45509  -0.45283
 Alpha  occ. eigenvalues --   -0.44298  -0.44026  -0.43875  -0.43299  -0.43124
 Alpha  occ. eigenvalues --   -0.42844  -0.42272  -0.42148  -0.41862  -0.41651
 Alpha  occ. eigenvalues --   -0.41124  -0.40813  -0.40204  -0.39660  -0.39482
 Alpha  occ. eigenvalues --   -0.39322  -0.39141  -0.38903  -0.38283  -0.38113
 Alpha  occ. eigenvalues --   -0.38070  -0.37932  -0.37386  -0.37109  -0.36742
 Alpha  occ. eigenvalues --   -0.36631  -0.36263  -0.35836  -0.35268  -0.34798
 Alpha  occ. eigenvalues --   -0.34379  -0.33585  -0.33446  -0.33054  -0.31326
 Alpha  occ. eigenvalues --   -0.28916  -0.28768  -0.28073  -0.27869  -0.27721
 Alpha  occ. eigenvalues --   -0.27355  -0.26368  -0.25819  -0.25413  -0.24866
 Alpha  occ. eigenvalues --   -0.22552  -0.21651  -0.21398  -0.17918
 Alpha virt. eigenvalues --   -0.02548  -0.01213  -0.00772  -0.00216   0.00030
 Alpha virt. eigenvalues --    0.00415   0.03293   0.04519   0.05772   0.06410
 Alpha virt. eigenvalues --    0.06532   0.06992   0.07263   0.07450   0.07804

 Mulliken charges:
               1
     1  C   -0.104896
     2  C   -0.087349
     3  C   -0.067891
     4  C   -0.082459
     5  C   -0.096084
     6  H    0.141649
     7  H    0.107293
     8  H    0.116079
     9  H    0.114043
    10  H    0.112704
    11  Fe  -0.219861
    12  C   -0.101515
    13  C   -0.047180
    14  C   -0.171753
    15  C   -0.092586
    16  C   -0.038977
    17  H    0.107068
    18  H    0.122820
    19  H    0.109206
    20  C   -0.320128
    21  H    0.155496
    22  P    0.411896
    23  C   -0.340059
    24  H    0.151762
    25  H    0.150139
    26  H    0.137735
    27  P    0.346155
    28  C   -0.419637
    29  C   -0.427802
    30  C   -0.293970
    31  H    0.153998
    32  H    0.108539
    33  H    0.131725
    34  C   -0.290804
    35  H    0.117879
    36  H    0.141550
    37  H    0.144149
    38  C   -0.342158
    39  H    0.115032
    40  H    0.208507
    41  H    0.153959
    42  C   -0.317416
    43  H    0.141299
    44  H    0.123064
    45  H    0.153828
    46  C   -0.271145
    47  H    0.129773
    48  H    0.128935
    49  H    0.115412
    50  C   -0.287865
    51  H    0.109264
    52  H    0.133407
    53  H    0.139361
    54  C   -0.136462
    55  C   -0.130231
    56  C   -0.118118
    57  C   -0.089612
    58  H    0.122704
    59  C   -0.098452
    60  H    0.121438
    61  C   -0.092850
    62  H    0.098124
    63  H    0.099589
    64  H    0.102021
    65  C   -0.125461
    66  C   -0.155901
    67  C   -0.158703
    68  C   -0.082517
    69  H    0.114045
    70  C   -0.084995
    71  H    0.125419
    72  C   -0.100091
    73  H    0.092967
    74  H    0.091349
    75  H    0.093551
 Sum of Mulliken charges =  -0.00000

 Dipole moment (field-independent basis, Debye):
    X=             -1.6640    Y=              0.6157    Z=             -0.5704  Tot=              1.8637
 Quadrupole moment (field-independent basis, Debye-Ang):
   XX=           -236.1922   YY=           -222.7906   ZZ=           -223.5839
   XY=              2.0221   XZ=             -5.9586   YZ=              1.2683

 Summary of Natural Population Analysis:

                                       Natural Population
                Natural  -----------------------------------------------
    Atom  No    Charge         Core      Valence    Rydberg      Total
 -----------------------------------------------------------------------
      C    1   -0.23781      1.99870     4.21553    0.02357     6.23781
      C    2   -0.24331      1.99868     4.22200    0.02264     6.24331
      C    3   -0.23642      1.99866     4.21497    0.02279     6.23642
      C    4   -0.24048      1.99866     4.21891    0.02290     6.24048
      C    5   -0.24716      1.99869     4.22499    0.02347     6.24716
      H    6    0.25064      0.00000     0.74591    0.00345     0.74936
      H    7    0.24429      0.00000     0.75424    0.00147     0.75571
      H    8    0.24598      0.00000     0.75287    0.00114     0.75402
      H    9    0.24529      0.00000     0.75354    0.00117     0.75471
      H   10    0.24255      0.00000     0.75597    0.00148     0.75745
     Fe   11    0.02668     17.99292     7.96269    0.01771    25.97332
      C   12   -0.24407      1.99864     4.22375    0.02167     6.24407
      C   13   -0.05870      1.99862     4.02959    0.03049     6.05870
      C   14   -0.39487      1.99856     4.36598    0.03033     6.39487
      C   15   -0.22581      1.99865     4.20138    0.02578     6.22581
      C   16   -0.22581      1.99866     4.20358    0.02357     6.22581
      H   17    0.25421      0.00000     0.74458    0.00121     0.74579
      H   18    0.26027      0.00000     0.73840    0.00133     0.73973
      H   19    0.24867      0.00000     0.75015    0.00118     0.75133
      C   20   -0.52122      1.99901     4.49931    0.02291     6.52122
      H   21    0.26857      0.00000     0.72775    0.00368     0.73143
      P   22    0.88766      9.99789     4.06891    0.04554    14.11234
      C   23   -0.63039      1.99926     4.61809    0.01304     6.63039
      H   24    0.21946      0.00000     0.77924    0.00130     0.78054
      H   25    0.21951      0.00000     0.77747    0.00302     0.78049
      H   26    0.21971      0.00000     0.77887    0.00143     0.78029
      P   27    0.76997      9.99831     4.19335    0.03836    14.23003
      C   28   -0.33825      1.99895     4.31891    0.02040     6.33825
      C   29   -0.33284      1.99893     4.31301    0.02091     6.33284
      C   30   -0.62878      1.99919     4.61451    0.01508     6.62878
      H   31    0.21755      0.00000     0.78034    0.00211     0.78245
      H   32    0.21130      0.00000     0.78604    0.00266     0.78870
      H   33    0.21739      0.00000     0.78118    0.00142     0.78261
      C   34   -0.63019      1.99922     4.61602    0.01496     6.63019
      H   35    0.21883      0.00000     0.77887    0.00231     0.78117
      H   36    0.22658      0.00000     0.77140    0.00202     0.77342
      H   37    0.21324      0.00000     0.78527    0.00149     0.78676
      C   38   -0.63390      1.99920     4.61935    0.01535     6.63390
      H   39    0.21426      0.00000     0.78362    0.00212     0.78574
      H   40    0.22139      0.00000     0.77449    0.00412     0.77861
      H   41    0.23316      0.00000     0.76511    0.00174     0.76684
      C   42   -0.63113      1.99922     4.61737    0.01455     6.63113
      H   43    0.21380      0.00000     0.78465    0.00154     0.78620
      H   44    0.22056      0.00000     0.77725    0.00219     0.77944
      H   45    0.22485      0.00000     0.77317    0.00198     0.77515
      C   46   -0.62031      1.99921     4.60584    0.01526     6.62031
      H   47    0.21992      0.00000     0.77874    0.00134     0.78008
      H   48    0.22371      0.00000     0.77443    0.00187     0.77629
      H   49    0.21333      0.00000     0.78458    0.00209     0.78667
      C   50   -0.62934      1.99920     4.61529    0.01485     6.62934
      H   51    0.21093      0.00000     0.78643    0.00264     0.78907
      H   52    0.21995      0.00000     0.77867    0.00139     0.78005
      H   53    0.21531      0.00000     0.78330    0.00139     0.78469
      C   54   -0.34572      1.99885     4.31984    0.02702     6.34572
      C   55   -0.21413      1.99890     4.19462    0.02061     6.21413
      C   56   -0.20315      1.99887     4.18625    0.01803     6.20315
      C   57   -0.22259      1.99892     4.20748    0.01618     6.22259
      H   58    0.23753      0.00000     0.76040    0.00206     0.76247
      C   59   -0.22397      1.99893     4.20925    0.01579     6.22397
      H   60    0.23680      0.00000     0.76112    0.00207     0.76320
      C   61   -0.21445      1.99894     4.19988    0.01562     6.21445
      H   62    0.22640      0.00000     0.77185    0.00174     0.77360
      H   63    0.22717      0.00000     0.77115    0.00167     0.77283
      H   64    0.22627      0.00000     0.77206    0.00167     0.77373
      C   65   -0.34323      1.99891     4.31976    0.02456     6.34323
      C   66   -0.22612      1.99890     4.20946    0.01777     6.22612
      C   67   -0.22131      1.99891     4.20421    0.01820     6.22131
      C   68   -0.21279      1.99894     4.19796    0.01589     6.21279
      H   69    0.23176      0.00000     0.76612    0.00212     0.76824
      C   70   -0.21364      1.99894     4.19882    0.01589     6.21364
      H   71    0.22974      0.00000     0.76736    0.00290     0.77026
      C   72   -0.23115      1.99895     4.21634    0.01587     6.23115
      H   73    0.22281      0.00000     0.77547    0.00172     0.77719
      H   74    0.22320      0.00000     0.77512    0.00168     0.77680
      H   75    0.22185      0.00000     0.77648    0.00168     0.77815
 =======================================================================
   * Total *   -0.00000    101.95399   185.23083    0.81519   288.00000

 Normal termination of Gaussian 16 at Sat Aug 12 03:43:59 2023.
