 Gaussian 16, Revision C.02,
 Gaussian 16:  ES64L-G16RevC.02  7-Dec-2021

 ----------------------------------------------------------------------
 #p pop=nbo pbe1pbe/def2svpp empiricaldispersion=gd3bj integral=grid=ul
 trafinegrid scf=(xqc,maxconventionalcycles=90) nosymm
 ----------------------------------------------------------------------

 ----
 Cisa
 ----
 Symbolic Z-matrix:
 Charge =  0 Multiplicity = 1

                          Input orientation:
 ---------------------------------------------------------------------
 Center     Atomic      Atomic             Coordinates (Angstroms)
 Number     Number       Type             X           Y           Z
 ---------------------------------------------------------------------
      1         15           0        0.175910    0.816860   -0.718180
      2         15           0       -2.650100   -0.736670   -0.265410
      3          6           0       -1.487990   -2.186970   -0.096440
      4          6           0       -2.104510   -3.474110    0.439260
      5          6           0        0.537980   -0.569160    0.395660
      6          6           0       -0.267190   -1.738170    0.657210
      7          6           0        0.313110   -2.411150    1.774340
      8          6           0        1.471090   -1.695990    2.188940
      9          6           0        1.624770   -0.574590    1.335450
     10          1           0       -1.196380   -2.366680   -1.146920
     11          1           0       -1.352170   -4.280770    0.412970
     12          1           0       -2.960540   -3.788320   -0.176970
     13          1           0       -2.461680   -3.375780    1.476260
     14          1           0        2.417380    0.170600    1.390230
     15          6           0       -3.093290    1.432910    3.762320
     16          6           0       -2.757320    0.072940    3.790130
     17          6           0       -2.637880   -0.608670    2.575890
     18          6           0       -2.834540    0.058000    1.361580
     19          6           0       -3.161320    1.418270    1.366210
     20          6           0       -3.303400    2.122810    2.565630
     21          1           0       -2.372270   -1.666870    2.591220
     22          1           0       -3.269540    1.945590    0.411300
     23          6           0       -6.710580   -2.554110   -1.404000
     24          6           0       -6.636430   -1.775930   -0.246990
     25          6           0       -5.394530   -1.235600    0.115790
     26          6           0       -4.265020   -1.465910   -0.669960
     27          6           0       -4.369790   -2.244260   -1.831940
     28          6           0       -5.590740   -2.803890   -2.209600
     29          1           0       -5.312550   -0.634270    1.026350
     30          1           0       -3.482550   -2.433470   -2.448120
     31         26           0        1.648730   -2.281440    0.237390
     32          6           0        2.677420   -4.046340    0.183590
     33          6           0        3.561350   -2.954640   -0.053930
     34          6           0        3.104710   -2.259260   -1.207620
     35          6           0        1.938870   -2.925000   -1.689190
     36          6           0        1.676550   -4.029320   -0.830910
     37          1           0        2.739970   -4.753230    1.011270
     38          1           0        3.555520   -1.363760   -1.633740
     39          1           0        1.349400   -2.628620   -2.556410
     40          1           0        0.845050   -4.729400   -0.920210
     41          1           0       -3.187240    1.974350    4.710110
     42          1           0       -7.675110   -2.987310   -1.690720
     43          6           0       -2.557610   -0.644720    5.094290
     44          1           0       -3.520240   -1.017570    5.490110
     45          1           0       -1.889310   -1.513570    4.977900
     46          1           0       -2.126740    0.020940    5.860190
     47          6           0       -3.612370    3.591500    2.547720
     48          1           0       -4.430680    3.822240    1.844580
     49          1           0       -3.905000    3.957200    3.544930
     50          1           0       -2.725310    4.167020    2.224120
     51          6           0       -7.859440   -1.502170    0.580520
     52          1           0       -7.601920   -1.337380    1.639540
     53          1           0       -8.379620   -0.594350    0.222900
     54          1           0       -8.579520   -2.334750    0.525450
     55          6           0       -5.712250   -3.653280   -3.442240
     56          1           0       -6.450810   -3.230900   -4.146050
     57          1           0       -4.749770   -3.740910   -3.971830
     58          1           0       -6.052690   -4.673050   -3.190250
     59          1           0        2.149390   -1.988490    2.990310
     60          1           0       -0.038750   -3.347120    2.205830
     61          1           0        4.416210   -2.678220    0.563660
     62          6           0        0.320870    2.276350    0.387590
     63          6           0        0.039600    2.083470    1.729750
     64          6           0        0.567400    3.605000   -0.099570
     65          6           0        0.020010    3.159070    2.641500
     66          1           0       -0.178990    1.081880    2.106030
     67          6           0        0.550670    4.689490    0.838110
     68          6           0        0.828450    3.919360   -1.460200
     69          6           0        0.276550    4.435280    2.206210
     70          1           0       -0.201940    2.960680    3.693360
     71          6           0        0.802670    6.010900    0.386370
     72          6           0        1.063530    5.212800   -1.869560
     73          1           0        0.848940    3.121790   -2.202860
     74          1           0        0.271000    5.276180    2.906240
     75          6           0        1.055640    6.273770   -0.938930
     76          1           0        0.790390    6.822590    1.119960
     77          1           0        1.260240    5.416650   -2.925960
     78          1           0        1.249460    7.296750   -1.272890
     79          6           0        1.634650    0.825560   -1.826380
     80          6           0        2.807090    1.412170   -1.387300
     81          6           0        1.589920    0.178820   -3.102030
     82          6           0        3.973320    1.394950   -2.179540
     83          1           0        2.833430    1.914730   -0.416070
     84          6           0        2.778600    0.168590   -3.902290
     85          6           0        0.439240   -0.475660   -3.618360
     86          6           0        3.956650    0.788080   -3.413670
     87          1           0        4.884770    1.870350   -1.807390
     88          6           0        2.762450   -0.474660   -5.168030
     89          6           0        0.452170   -1.086080   -4.850950
     90          1           0       -0.485650   -0.484420   -3.020020
     91          1           0        4.856000    0.771990   -4.036410
     92          6           0        1.626200   -1.088450   -5.638140
     93          1           0        3.679190   -0.474160   -5.765040
     94          1           0       -0.451810   -1.578100   -5.222220
     95          1           0        1.628650   -1.580430   -6.614630
 ---------------------------------------------------------------------

 SCF Done:  E(RPBE1PBE) =  -3797.77390945     A.U. after   19 cycles

 Alpha  occ. eigenvalues -- -256.34755 -77.19267 -77.18030 -30.12228 -25.97077
 Alpha  occ. eigenvalues --  -25.95205 -25.95151 -10.25519 -10.25251 -10.24980
 Alpha  occ. eigenvalues --  -10.24870 -10.24606 -10.24585 -10.24449 -10.24427
 Alpha  occ. eigenvalues --  -10.24272 -10.24196 -10.24152 -10.24093 -10.24059
 Alpha  occ. eigenvalues --  -10.24018 -10.24014 -10.23958 -10.23942 -10.23924
 Alpha  occ. eigenvalues --  -10.23900 -10.23857 -10.23835 -10.23830 -10.23772
 Alpha  occ. eigenvalues --  -10.23718 -10.23714 -10.23688 -10.23661 -10.23457
 Alpha  occ. eigenvalues --  -10.23322 -10.23242 -10.23239 -10.23173 -10.23169
 Alpha  occ. eigenvalues --  -10.23151 -10.23096 -10.22987 -10.22940 -10.22936
 Alpha  occ. eigenvalues --  -10.22932 -10.22769 -10.22637 -10.22623 -10.22357
 Alpha  occ. eigenvalues --  -10.22106 -10.22091 -10.22070 -10.22030 -10.21935
 Alpha  occ. eigenvalues --   -6.60152  -6.59062  -4.74220  -4.74196  -4.73687
 Alpha  occ. eigenvalues --   -4.73124  -4.73102  -4.72565  -3.45416  -2.24402
 Alpha  occ. eigenvalues --   -2.19680  -2.19588  -0.91922  -0.89933  -0.89843
 Alpha  occ. eigenvalues --   -0.89020  -0.87853  -0.87229  -0.84444  -0.83663
 Alpha  occ. eigenvalues --   -0.81467  -0.80167  -0.79717  -0.79379  -0.78627
 Alpha  occ. eigenvalues --   -0.77951  -0.76793  -0.76052  -0.75399  -0.75024
 Alpha  occ. eigenvalues --   -0.73404  -0.72560  -0.72461  -0.72302  -0.71698
 Alpha  occ. eigenvalues --   -0.70461  -0.69997  -0.69053  -0.68840  -0.66638
 Alpha  occ. eigenvalues --   -0.65919  -0.63983  -0.63204  -0.63015  -0.62439
 Alpha  occ. eigenvalues --   -0.62325  -0.60339  -0.60100  -0.58346  -0.58155
 Alpha  occ. eigenvalues --   -0.57952  -0.56265  -0.55318  -0.55059  -0.54689
 Alpha  occ. eigenvalues --   -0.54307  -0.53108  -0.52460  -0.52425  -0.52123
 Alpha  occ. eigenvalues --   -0.51704  -0.51361  -0.50760  -0.50689  -0.49823
 Alpha  occ. eigenvalues --   -0.49050  -0.48950  -0.48466  -0.46339  -0.46100
 Alpha  occ. eigenvalues --   -0.45360  -0.44834  -0.44290  -0.44057  -0.43949
 Alpha  occ. eigenvalues --   -0.43840  -0.43636  -0.43370  -0.43005  -0.42915
 Alpha  occ. eigenvalues --   -0.42762  -0.42514  -0.42346  -0.42268  -0.42207
 Alpha  occ. eigenvalues --   -0.41715  -0.41655  -0.41557  -0.41358  -0.41258
 Alpha  occ. eigenvalues --   -0.40880  -0.40764  -0.40607  -0.40508  -0.40411
 Alpha  occ. eigenvalues --   -0.40184  -0.39786  -0.39707  -0.39020  -0.38928
 Alpha  occ. eigenvalues --   -0.38554  -0.38341  -0.38150  -0.37766  -0.37471
 Alpha  occ. eigenvalues --   -0.37238  -0.37004  -0.36673  -0.35808  -0.35528
 Alpha  occ. eigenvalues --   -0.35411  -0.35289  -0.34877  -0.34714  -0.34652
 Alpha  occ. eigenvalues --   -0.34088  -0.33961  -0.33000  -0.32739  -0.32132
 Alpha  occ. eigenvalues --   -0.30444  -0.30017  -0.28139  -0.27882  -0.27282
 Alpha  occ. eigenvalues --   -0.26374  -0.26167  -0.25824  -0.25659  -0.25518
 Alpha  occ. eigenvalues --   -0.24797  -0.24665  -0.24431  -0.24267  -0.22871
 Alpha  occ. eigenvalues --   -0.21855  -0.21501  -0.21378  -0.17807
 Alpha virt. eigenvalues --   -0.04932  -0.03872  -0.01799  -0.01603  -0.01027
 Alpha virt. eigenvalues --   -0.00618   0.00009   0.00217   0.00660   0.01071
 Alpha virt. eigenvalues --    0.01404   0.03029   0.03723   0.04746   0.05921

 Mulliken charges:
               1
     1  P    0.382987
     2  P    0.325124
     3  C   -0.313550
     4  C   -0.303745
     5  C   -0.190433
     6  C   -0.028812
     7  C   -0.101270
     8  C   -0.019643
     9  C   -0.093245
    10  H    0.158964
    11  H    0.136963
    12  H    0.160121
    13  H    0.136871
    14  H    0.111666
    15  C   -0.198599
    16  C    0.017770
    17  C   -0.152712
    18  C   -0.159805
    19  C   -0.143788
    20  C    0.027410
    21  H    0.083805
    22  H    0.095464
    23  C   -0.190372
    24  C    0.028473
    25  C   -0.191942
    26  C   -0.065101
    27  C   -0.202019
    28  C    0.023368
    29  H    0.104647
    30  H    0.074245
    31  Fe  -0.220494
    32  C   -0.087079
    33  C   -0.064608
    34  C   -0.106519
    35  C   -0.107842
    36  C   -0.083477
    37  H    0.113149
    38  H    0.146775
    39  H    0.141406
    40  H    0.110481
    41  H    0.064905
    42  H    0.061495
    43  C   -0.290818
    44  H    0.144019
    45  H    0.132426
    46  H    0.129751
    47  C   -0.298407
    48  H    0.135835
    49  H    0.121436
    50  H    0.168726
    51  C   -0.292383
    52  H    0.132197
    53  H    0.144501
    54  H    0.128208
    55  C   -0.290527
    56  H    0.139184
    57  H    0.125098
    58  H    0.137553
    59  H    0.106377
    60  H    0.097100
    61  H    0.113686
    62  C   -0.158394
    63  C   -0.153394
    64  C    0.052894
    65  C   -0.070146
    66  H    0.163619
    67  C    0.080655
    68  C   -0.158296
    69  C   -0.148211
    70  H    0.090546
    71  C   -0.140131
    72  C   -0.092337
    73  H    0.125029
    74  H    0.078259
    75  C   -0.082823
    76  H    0.080705
    77  H    0.093977
    78  H    0.093457
    79  C   -0.160132
    80  C   -0.121448
    81  C    0.065427
    82  C   -0.076760
    83  H    0.128564
    84  C    0.072816
    85  C   -0.197122
    86  C   -0.137419
    87  H    0.094197
    88  C   -0.133104
    89  C   -0.082015
    90  H    0.143042
    91  H    0.085422
    92  C   -0.078546
    93  H    0.084733
    94  H    0.094798
    95  H    0.097143
 Sum of Mulliken charges =  -0.00000

 Dipole moment (field-independent basis, Debye):
    X=              0.5838    Y=             -1.0324    Z=              1.5662  Tot=              1.9646
 Quadrupole moment (field-independent basis, Debye-Ang):
   XX=           -309.7997   YY=           -308.6487   ZZ=           -298.8083
   XY=              8.0279   XZ=             -4.2995   YZ=              4.8157

 Summary of Natural Population Analysis:

                                       Natural Population
                Natural  -----------------------------------------------
    Atom  No    Charge         Core      Valence    Rydberg      Total
 -----------------------------------------------------------------------
      P    1    0.86108      9.99793     4.09880    0.04220    14.13892
      P    2    0.83344      9.99808     4.12431    0.04417    14.16656
      C    3   -0.51694      1.99899     4.49590    0.02204     6.51694
      C    4   -0.62310      1.99926     4.61131    0.01253     6.62310
      C    5   -0.38989      1.99859     4.35948    0.03183     6.38989
      C    6   -0.05804      1.99859     4.02783    0.03163     6.05804
      C    7   -0.23107      1.99863     4.21053    0.02191     6.23107
      C    8   -0.22360      1.99866     4.20118    0.02376     6.22360
      C    9   -0.22135      1.99863     4.19664    0.02608     6.22135
      H   10    0.26933      0.00000     0.72733    0.00334     0.73067
      H   11    0.21441      0.00000     0.78326    0.00233     0.78559
      H   12    0.23634      0.00000     0.76218    0.00148     0.76366
      H   13    0.21249      0.00000     0.78620    0.00131     0.78751
      H   14    0.25628      0.00000     0.74234    0.00138     0.74372
      C   15   -0.21570      1.99884     4.20113    0.01574     6.21570
      C   16   -0.03473      1.99885     4.02015    0.01573     6.03473
      C   17   -0.20943      1.99882     4.19200    0.01861     6.20943
      C   18   -0.34825      1.99888     4.32317    0.02620     6.34825
      C   19   -0.19987      1.99883     4.18226    0.01879     6.19987
      C   20   -0.02999      1.99885     4.01471    0.01642     6.02999
      H   21    0.21986      0.00000     0.77746    0.00268     0.78014
      H   22    0.23809      0.00000     0.76013    0.00178     0.76191
      C   23   -0.22516      1.99884     4.21036    0.01595     6.22516
      C   24   -0.02642      1.99888     4.01195    0.01560     6.02642
      C   25   -0.22142      1.99883     4.20512    0.01748     6.22142
      C   26   -0.32563      1.99889     4.30192    0.02481     6.32563
      C   27   -0.23284      1.99884     4.21667    0.01733     6.23284
      C   28   -0.03007      1.99887     4.01558    0.01563     6.03007
      H   29    0.23010      0.00000     0.76742    0.00247     0.76990
      H   30    0.21820      0.00000     0.77965    0.00215     0.78180
     Fe   31    0.01779     17.99291     7.97106    0.01824    25.98221
      C   32   -0.23893      1.99866     4.21739    0.02288     6.23893
      C   33   -0.23526      1.99867     4.21395    0.02264     6.23526
      C   34   -0.23351      1.99869     4.21119    0.02363     6.23351
      C   35   -0.23893      1.99870     4.21713    0.02310     6.23893
      C   36   -0.24380      1.99868     4.22201    0.02312     6.24380
      H   37    0.24463      0.00000     0.75421    0.00116     0.75537
      H   38    0.24916      0.00000     0.74719    0.00365     0.75084
      H   39    0.24951      0.00000     0.74783    0.00266     0.75049
      H   40    0.24279      0.00000     0.75588    0.00133     0.75721
      H   41    0.21766      0.00000     0.78049    0.00185     0.78234
      H   42    0.21497      0.00000     0.78313    0.00190     0.78503
      C   43   -0.63054      1.99923     4.62184    0.00948     6.63054
      H   44    0.22839      0.00000     0.76999    0.00162     0.77161
      H   45    0.22239      0.00000     0.77620    0.00141     0.77761
      H   46    0.22187      0.00000     0.77670    0.00143     0.77813
      C   47   -0.63190      1.99921     4.62307    0.00962     6.63190
      H   48    0.22666      0.00000     0.77192    0.00142     0.77334
      H   49    0.21691      0.00000     0.78170    0.00138     0.78309
      H   50    0.23737      0.00000     0.76064    0.00198     0.76263
      C   51   -0.63049      1.99923     4.62191    0.00935     6.63049
      H   52    0.22270      0.00000     0.77586    0.00144     0.77730
      H   53    0.22895      0.00000     0.76944    0.00161     0.77105
      H   54    0.22019      0.00000     0.77834    0.00147     0.77981
      C   55   -0.63050      1.99923     4.62192    0.00934     6.63050
      H   56    0.22721      0.00000     0.77123    0.00156     0.77279
      H   57    0.21831      0.00000     0.78033    0.00136     0.78169
      H   58    0.22591      0.00000     0.77253    0.00157     0.77409
      H   59    0.24732      0.00000     0.75147    0.00122     0.75268
      H   60    0.25130      0.00000     0.74746    0.00124     0.74870
      H   61    0.24568      0.00000     0.75317    0.00115     0.75432
      C   62   -0.31234      1.99888     4.28886    0.02460     6.31234
      C   63   -0.21617      1.99890     4.19603    0.02124     6.21617
      C   64   -0.06264      1.99885     4.04577    0.01803     6.06264
      C   65   -0.21385      1.99892     4.19776    0.01716     6.21385
      H   66    0.24151      0.00000     0.75323    0.00526     0.75849
      C   67   -0.06308      1.99886     4.04818    0.01604     6.06308
      C   68   -0.19788      1.99894     4.18266    0.01628     6.19788
      C   69   -0.20341      1.99890     4.18795    0.01656     6.20341
      H   70    0.22762      0.00000     0.77061    0.00176     0.77238
      C   71   -0.19497      1.99893     4.17979    0.01626     6.19497
      C   72   -0.21541      1.99894     4.20056    0.01591     6.21541
      H   73    0.23393      0.00000     0.76300    0.00307     0.76607
      H   74    0.22118      0.00000     0.77693    0.00189     0.77882
      C   75   -0.22140      1.99894     4.20674    0.01572     6.22140
      H   76    0.22083      0.00000     0.77723    0.00195     0.77917
      H   77    0.22499      0.00000     0.77331    0.00170     0.77501
      H   78    0.22366      0.00000     0.77467    0.00167     0.77634
      C   79   -0.31021      1.99887     4.28334    0.02800     6.31021
      C   80   -0.20635      1.99887     4.18825    0.01923     6.20635
      C   81   -0.05924      1.99883     4.04052    0.01990     6.05924
      C   82   -0.21740      1.99891     4.20213    0.01636     6.21740
      H   83    0.23655      0.00000     0.76109    0.00236     0.76345
      C   84   -0.06610      1.99885     4.05114    0.01612     6.06610
      C   85   -0.20954      1.99892     4.19479    0.01583     6.20954
      C   86   -0.19351      1.99892     4.17821    0.01639     6.19351
      H   87    0.22787      0.00000     0.77035    0.00178     0.77213
      C   88   -0.19159      1.99892     4.17622    0.01644     6.19159
      C   89   -0.21985      1.99893     4.20495    0.01597     6.21985
      H   90    0.24543      0.00000     0.75226    0.00231     0.75457
      H   91    0.22478      0.00000     0.77332    0.00190     0.77522
      C   92   -0.21895      1.99894     4.20419    0.01582     6.21895
      H   93    0.22339      0.00000     0.77470    0.00191     0.77661
      H   94    0.22635      0.00000     0.77197    0.00167     0.77365
      H   95    0.22587      0.00000     0.77247    0.00166     0.77413
 =======================================================================
   * Total *   -0.00000    133.93478   252.97729    1.08793   388.00000

 Normal termination of Gaussian 16 at Fri Sep 29 19:35:20 2023.
