 Gaussian 16, Revision C.01,
 Gaussian 16:  ES64L-G16RevC.01  3-Jul-2019

 ----------------------------------------------------------------------
 #p pop=nbo NMR pbe1pbe/def2svpp empiricaldispersion=gd3bj integral=gri
 d=ultrafinegrid scf=(xqc,maxconventionalcycles=90) nosymm
 ----------------------------------------------------------------------

 ----
 Cisa
 ----
 Symbolic Z-matrix:
 Charge =  0 Multiplicity = 1

                          Input orientation:
 ---------------------------------------------------------------------
 Center     Atomic      Atomic             Coordinates (Angstroms)
 Number     Number       Type             X           Y           Z
 ---------------------------------------------------------------------
      1          6           0       -4.803970   -0.444090   -1.180500
      2          6           0       -5.309540    0.810800   -0.738240
      3          6           0       -4.572480    1.838520   -1.392800
      4          6           0       -3.607460    1.218890   -2.238210
      5          6           0       -3.751470   -0.190140   -2.107310
      6          1           0       -5.161510   -1.423170   -0.861820
      7          1           0       -6.107730    0.959480   -0.010810
      8          1           0       -4.713390    2.910850   -1.253470
      9          1           0       -2.883010    1.729910   -2.873170
     10          1           0       -3.156510   -0.940900   -2.626380
     11         26           0       -3.318710    0.663530   -0.283390
     12          6           0       -2.548030    1.980610    1.061310
     13          6           0       -1.505410    1.385900    0.283340
     14          6           0       -1.554740   -0.042290    0.510900
     15          6           0       -2.658720   -0.283190    1.403750
     16          6           0       -3.254000    0.955870    1.744620
     17          1           0       -2.805360    3.037790    1.087150
     18          1           0       -2.994760   -1.253420    1.761680
     19          1           0       -4.126520    1.093890    2.382880
     20          6           0       -0.595270    2.153770   -0.638320
     21          1           0       -0.547540    1.592100   -1.588030
     22         15           0       -0.215510   -1.223480    0.138820
     23          6           0       -1.196790    3.526470   -0.944000
     24          1           0       -0.724450    4.003600   -1.811240
     25          1           0       -2.261490    3.393300   -1.190400
     26          1           0       -1.134590    4.221200   -0.094640
     27         15           0        1.211420    2.044510   -0.090860
     28          6           0        0.109740   -1.925170    1.860160
     29          6           0       -0.809580   -3.030700    2.391420
     30          6           0        1.570030   -2.317470    2.108280
     31          1           0       -0.089560   -1.031920    2.475350
     32          6           0       -0.557490   -3.261480    3.882400
     33          1           0       -0.624480   -3.970410    1.841760
     34          1           0       -1.869470   -2.781450    2.244530
     35          6           0        1.831020   -2.532430    3.596520
     36          1           0        2.250920   -1.548340    1.698530
     37          1           0        1.794580   -3.258490    1.573060
     38          6           0        0.901080   -3.594490    4.171910
     39          1           0       -1.217070   -4.068700    4.245630
     40          1           0       -0.844870   -2.348370    4.438390
     41          1           0        2.886540   -2.815990    3.752970
     42          1           0        1.679190   -1.575280    4.132060
     43          1           0        1.147730   -4.575150    3.721360
     44          1           0        1.062300   -3.701550    5.258380
     45          6           0       -0.981870   -2.549800   -0.949150
     46          6           0       -0.155170   -3.833590   -1.107720
     47          6           0       -2.420910   -2.932310   -0.587220
     48          1           0       -1.009930   -2.039020   -1.933520
     49          6           0       -0.770150   -4.757510   -2.160500
     50          1           0       -0.114830   -4.362250   -0.138430
     51          1           0        0.880510   -3.626490   -1.395710
     52          6           0       -3.041120   -3.826890   -1.657840
     53          1           0       -3.025010   -2.028470   -0.445390
     54          1           0       -2.424810   -3.482770    0.367660
     55          6           0       -2.223420   -5.096670   -1.856700
     56          1           0       -0.164530   -5.677290   -2.236850
     57          1           0       -0.708590   -4.261380   -3.148870
     58          1           0       -4.079950   -4.073940   -1.376170
     59          1           0       -3.100820   -3.274490   -2.615700
     60          1           0       -2.271830   -5.708390   -0.935570
     61          1           0       -2.651230   -5.713910   -2.665290
     62          6           0        1.327160    2.545450    1.736550
     63          6           0        2.129420    3.348940   -1.147810
     64          6           0        0.904240    1.344650    2.582890
     65          1           0        1.016520    1.601580    3.652200
     66          1           0       -0.148370    1.071170    2.416170
     67          1           0        1.543800    0.471010    2.376950
     68          6           0        0.436170    3.733600    2.105270
     69          1           0       -0.630510    3.485590    1.997890
     70          1           0        0.606600    3.983930    3.168580
     71          1           0        0.650960    4.637520    1.517610
     72          6           0        2.784380    2.860400    2.085580
     73          1           0        3.134090    3.804260    1.643510
     74          1           0        2.867500    2.963400    3.182500
     75          1           0        3.469280    2.051360    1.778240
     76          6           0        1.754490    3.025520   -2.606420
     77          1           0        0.741900    3.375100   -2.857130
     78          1           0        2.451170    3.542370   -3.290200
     79          1           0        1.790970    1.945910   -2.829820
     80          6           0        3.656500    3.227380   -0.935800
     81          1           0        3.990010    2.250650   -0.569800
     82          1           0        4.183040    3.431230   -1.884760
     83          1           0        4.014240    3.973970   -0.212160
     84          6           0        1.794920    4.821720   -0.871430
     85          1           0        2.369720    5.436480   -1.588780
     86          1           0        0.736970    5.079620   -0.997040
     87          1           0        2.110370    5.133570    0.135900
 ---------------------------------------------------------------------

 SCF Done:  E(RPBE1PBE) =  -3193.92065584     A.U. after   18 cycles

      1  C    Isotropic =   123.5846   Anisotropy =    84.8103

      2  C    Isotropic =   126.2778   Anisotropy =    80.0239

      3  C    Isotropic =   124.4332   Anisotropy =    81.9902

      4  C    Isotropic =   119.4188   Anisotropy =    91.4984

      5  C    Isotropic =   123.0432   Anisotropy =    82.3220

      6  H    Isotropic =    28.5417   Anisotropy =     4.4599

      7  H    Isotropic =    28.3262   Anisotropy =     6.6383

      8  H    Isotropic =    28.2220   Anisotropy =     4.7859

      9  H    Isotropic =    28.8474   Anisotropy =     3.3297

     10  H    Isotropic =    28.3415   Anisotropy =     6.0285

     11  Fe   Isotropic = -5092.7886   Anisotropy =  9068.8212

     12  C    Isotropic =   122.7835   Anisotropy =    78.0458

     13  C    Isotropic =   100.8219   Anisotropy =    83.8747

     14  C    Isotropic =   113.9412   Anisotropy =    87.7202

     15  C    Isotropic =   116.3803   Anisotropy =    81.9896

     16  C    Isotropic =   123.2855   Anisotropy =    81.3513

     17  H    Isotropic =    28.1229   Anisotropy =     3.5156

     18  H    Isotropic =    28.0770   Anisotropy =     4.7145

     19  H    Isotropic =    28.1367   Anisotropy =     7.1035

     20  C    Isotropic =   160.8348   Anisotropy =    17.2534

     21  H    Isotropic =    28.3026   Anisotropy =     4.7948

     22  P    Isotropic =   425.7881   Anisotropy =    58.2878

     23  C    Isotropic =   170.1767   Anisotropy =     7.9528

     24  H    Isotropic =    29.8309   Anisotropy =     7.4430

     25  H    Isotropic =    29.6817   Anisotropy =     8.6672

     26  H    Isotropic =    30.0268   Anisotropy =     5.0948

     27  P    Isotropic =   370.8691   Anisotropy =    27.3464

     28  C    Isotropic =   149.8139   Anisotropy =    27.0616

     29  C    Isotropic =   158.2455   Anisotropy =     8.6818

     30  C    Isotropic =   156.9876   Anisotropy =    16.1393

     31  H    Isotropic =    30.9059   Anisotropy =     7.7848

     32  C    Isotropic =   162.6196   Anisotropy =     7.5791

     33  H    Isotropic =    30.2370   Anisotropy =     6.3542

     34  H    Isotropic =    29.6843   Anisotropy =     7.5831

     35  C    Isotropic =   163.0944   Anisotropy =     7.2238

     36  H    Isotropic =    29.7730   Anisotropy =     6.2715

     37  H    Isotropic =    30.6440   Anisotropy =     5.2483

     38  C    Isotropic =   165.3527   Anisotropy =     4.9515

     39  H    Isotropic =    30.2761   Anisotropy =    10.2575

     40  H    Isotropic =    30.9318   Anisotropy =     5.8975

     41  H    Isotropic =    30.3813   Anisotropy =    10.8200

     42  H    Isotropic =    30.8607   Anisotropy =     5.8950

     43  H    Isotropic =    30.7426   Anisotropy =     8.9580

     44  H    Isotropic =    30.4731   Anisotropy =    11.4748

     45  C    Isotropic =   152.5444   Anisotropy =    26.3875

     46  C    Isotropic =   162.8478   Anisotropy =     8.2422

     47  C    Isotropic =   160.8415   Anisotropy =     6.9965

     48  H    Isotropic =    29.9697   Anisotropy =     4.3500

     49  C    Isotropic =   162.8736   Anisotropy =     4.4381

     50  H    Isotropic =    30.3660   Anisotropy =     6.4047

     51  H    Isotropic =    30.1031   Anisotropy =     6.8119

     52  C    Isotropic =   162.6080   Anisotropy =     6.3631

     53  H    Isotropic =    27.7710   Anisotropy =    10.9824

     54  H    Isotropic =    30.1671   Anisotropy =     6.0697

     55  C    Isotropic =   164.9259   Anisotropy =     6.1138

     56  H    Isotropic =    30.0838   Anisotropy =    10.7680

     57  H    Isotropic =    30.5028   Anisotropy =     8.1884

     58  H    Isotropic =    30.1092   Anisotropy =     9.0628

     59  H    Isotropic =    30.6522   Anisotropy =     5.5175

     60  H    Isotropic =    30.5511   Anisotropy =     8.2020

     61  H    Isotropic =    30.2529   Anisotropy =    11.2905

     62  C    Isotropic =   160.4771   Anisotropy =    16.0596

     63  C    Isotropic =   161.4918   Anisotropy =    17.2924

     64  C    Isotropic =   156.2392   Anisotropy =    38.4215

     65  H    Isotropic =    31.6458   Anisotropy =     7.3495

     66  H    Isotropic =    31.7679   Anisotropy =    13.2768

     67  H    Isotropic =    30.8352   Anisotropy =    11.0770

     68  C    Isotropic =   162.8984   Anisotropy =    27.2946

     69  H    Isotropic =    30.3190   Anisotropy =     8.4806

     70  H    Isotropic =    31.2517   Anisotropy =    10.0146

     71  H    Isotropic =    30.0880   Anisotropy =     5.8240

     72  C    Isotropic =   158.5619   Anisotropy =    30.8214

     73  H    Isotropic =    30.5815   Anisotropy =     7.8636

     74  H    Isotropic =    31.2687   Anisotropy =     9.4748

     75  H    Isotropic =    30.6939   Anisotropy =     6.8253

     76  C    Isotropic =   159.5951   Anisotropy =    39.8218

     77  H    Isotropic =    30.3209   Anisotropy =     5.0783

     78  H    Isotropic =    30.9463   Anisotropy =    10.0876

     79  H    Isotropic =    30.1896   Anisotropy =     7.1582

     80  C    Isotropic =   154.3180   Anisotropy =    45.0731

     81  H    Isotropic =    30.3890   Anisotropy =     6.7809

     82  H    Isotropic =    30.7818   Anisotropy =     9.9813

     83  H    Isotropic =    30.6971   Anisotropy =     7.2069

     84  C    Isotropic =   159.5432   Anisotropy =    27.2976

     85  H    Isotropic =    30.5948   Anisotropy =     9.8997

     86  H    Isotropic =    30.0181   Anisotropy =     5.9464

     87  H    Isotropic =    30.2870   Anisotropy =     5.7111

 Alpha  occ. eigenvalues -- -256.35328 -77.17258 -77.16949 -30.12785 -25.97633
 Alpha  occ. eigenvalues --  -25.95770 -25.95707 -10.25383 -10.24872 -10.24438
 Alpha  occ. eigenvalues --  -10.24405 -10.24323 -10.24306 -10.24253 -10.24235
 Alpha  occ. eigenvalues --  -10.24226 -10.24211 -10.24164 -10.24057 -10.24006
 Alpha  occ. eigenvalues --  -10.23040 -10.22796 -10.22151 -10.22095 -10.22007
 Alpha  occ. eigenvalues --  -10.21902 -10.21885 -10.21878 -10.21866 -10.21841
 Alpha  occ. eigenvalues --  -10.21768 -10.21711 -10.21705 -10.21407 -10.21254
 Alpha  occ. eigenvalues --  -10.21140 -10.21122 -10.21046 -10.20822  -6.58221
 Alpha  occ. eigenvalues --   -6.57903  -4.72288  -4.72247  -4.71959  -4.71927
 Alpha  occ. eigenvalues --   -4.71726  -4.71386  -3.45898  -2.24855  -2.20176
 Alpha  occ. eigenvalues --   -2.20061  -0.92150  -0.90353  -0.85260  -0.84634
 Alpha  occ. eigenvalues --   -0.83595  -0.81518  -0.80044  -0.77176  -0.75359
 Alpha  occ. eigenvalues --   -0.75205  -0.74801  -0.73249  -0.73158  -0.73065
 Alpha  occ. eigenvalues --   -0.71612  -0.69931  -0.69581  -0.68680  -0.68506
 Alpha  occ. eigenvalues --   -0.65962  -0.64776  -0.61806  -0.61207  -0.61072
 Alpha  occ. eigenvalues --   -0.60647  -0.58067  -0.56645  -0.56151  -0.56077
 Alpha  occ. eigenvalues --   -0.55812  -0.55656  -0.55242  -0.54926  -0.52978
 Alpha  occ. eigenvalues --   -0.51266  -0.50723  -0.49179  -0.47617  -0.47040
 Alpha  occ. eigenvalues --   -0.46716  -0.45819  -0.45481  -0.45099  -0.45047
 Alpha  occ. eigenvalues --   -0.44878  -0.44759  -0.44047  -0.43774  -0.43307
 Alpha  occ. eigenvalues --   -0.43034  -0.42921  -0.42666  -0.42289  -0.42059
 Alpha  occ. eigenvalues --   -0.41834  -0.40979  -0.40428  -0.39827  -0.39755
 Alpha  occ. eigenvalues --   -0.39612  -0.39359  -0.39323  -0.39153  -0.38763
 Alpha  occ. eigenvalues --   -0.38600  -0.38419  -0.38275  -0.38147  -0.37583
 Alpha  occ. eigenvalues --   -0.37527  -0.36928  -0.36813  -0.36450  -0.36006
 Alpha  occ. eigenvalues --   -0.35777  -0.35178  -0.34824  -0.34703  -0.34257
 Alpha  occ. eigenvalues --   -0.34123  -0.33147  -0.33096  -0.32695  -0.31879
 Alpha  occ. eigenvalues --   -0.31382  -0.31236  -0.30654  -0.30477  -0.28865
 Alpha  occ. eigenvalues --   -0.28508  -0.28274  -0.27748  -0.26284  -0.25299
 Alpha  occ. eigenvalues --   -0.24837  -0.22466  -0.21947  -0.21566  -0.18082
 Alpha virt. eigenvalues --   -0.00566  -0.00087   0.03014   0.04261   0.05244
 Alpha virt. eigenvalues --    0.05967   0.06260   0.06461   0.06618   0.06891
 Alpha virt. eigenvalues --    0.07291   0.07559   0.08101   0.08142   0.09044

 Mulliken charges:
               1
     1  C   -0.113348
     2  C   -0.068802
     3  C   -0.086937
     4  C   -0.094734
     5  C   -0.106574
     6  H    0.123898
     7  H    0.116695
     8  H    0.118816
     9  H    0.113336
    10  H    0.127145
    11  Fe  -0.211931
    12  C   -0.095056
    13  C   -0.082753
    14  C   -0.153507
    15  C   -0.132485
    16  C   -0.022800
    17  H    0.107565
    18  H    0.120646
    19  H    0.107009
    20  C   -0.295303
    21  H    0.153267
    22  P    0.379286
    23  C   -0.344276
    24  H    0.152500
    25  H    0.147535
    26  H    0.137638
    27  P    0.344834
    28  C   -0.438986
    29  C   -0.221253
    30  C   -0.165539
    31  H    0.158847
    32  C   -0.192102
    33  H    0.124926
    34  H    0.143122
    35  C   -0.211376
    36  H    0.138456
    37  H    0.106009
    38  C   -0.210768
    39  H    0.109395
    40  H    0.102866
    41  H    0.114365
    42  H    0.107533
    43  H    0.101827
    44  H    0.113742
    45  C   -0.377068
    46  C   -0.178020
    47  C   -0.270641
    48  H    0.133183
    49  C   -0.210113
    50  H    0.121063
    51  H    0.119293
    52  C   -0.202853
    53  H    0.193993
    54  H    0.109451
    55  C   -0.201522
    56  H    0.114064
    57  H    0.103191
    58  H    0.110253
    59  H    0.106803
    60  H    0.101326
    61  H    0.112999
    62  C   -0.426095
    63  C   -0.414726
    64  C   -0.362984
    65  H    0.115588
    66  H    0.205601
    67  H    0.168189
    68  C   -0.292152
    69  H    0.150779
    70  H    0.107574
    71  H    0.133878
    72  C   -0.276674
    73  H    0.132599
    74  H    0.118006
    75  H    0.134485
    76  C   -0.296409
    77  H    0.129604
    78  H    0.124162
    79  H    0.147334
    80  C   -0.272647
    81  H    0.138446
    82  H    0.119008
    83  H    0.125451
    84  C   -0.298000
    85  H    0.112653
    86  H    0.125720
    87  H    0.142478
 Sum of Mulliken charges =  -0.00000

 Dipole moment (field-independent basis, Debye):
    X=             -1.4950    Y=              0.6742    Z=              0.6573  Tot=              1.7668
 Quadrupole moment (field-independent basis, Debye-Ang):
   XX=           -240.7941   YY=           -234.6513   ZZ=           -241.5183
   XY=             -0.6674   XZ=             -4.9746   YZ=             -1.4368

 Summary of Natural Population Analysis:

                                       Natural Population
                Natural  -----------------------------------------------
    Atom  No    Charge         Core      Valence    Rydberg      Total
 -----------------------------------------------------------------------
      C    1   -0.25359      1.99869     4.23220    0.02269     6.25359
      C    2   -0.23534      1.99866     4.21382    0.02285     6.23534
      C    3   -0.24035      1.99866     4.21969    0.02200     6.24035
      C    4   -0.24768      1.99868     4.22566    0.02334     6.24768
      C    5   -0.24163      1.99870     4.21974    0.02318     6.24163
      H    6    0.24822      0.00000     0.75023    0.00155     0.75178
      H    7    0.24699      0.00000     0.75190    0.00112     0.75301
      H    8    0.24636      0.00000     0.75243    0.00122     0.75364
      H    9    0.24570      0.00000     0.75276    0.00154     0.75430
      H   10    0.24429      0.00000     0.75359    0.00212     0.75571
     Fe   11    0.02462     17.99280     7.96545    0.01712    25.97538
      C   12   -0.24007      1.99863     4.22044    0.02101     6.24007
      C   13   -0.05052      1.99859     4.02184    0.03008     6.05052
      C   14   -0.38986      1.99862     4.35949    0.03175     6.38986
      C   15   -0.22960      1.99867     4.20586    0.02507     6.22960
      C   16   -0.22187      1.99865     4.19972    0.02350     6.22187
      H   17    0.25384      0.00000     0.74482    0.00133     0.74616
      H   18    0.24593      0.00000     0.75226    0.00181     0.75407
      H   19    0.24751      0.00000     0.75129    0.00120     0.75249
      C   20   -0.52557      1.99901     4.50398    0.02259     6.52557
      H   21    0.27180      0.00000     0.72489    0.00331     0.72820
      P   22    0.81776      9.99823     4.14201    0.04200    14.18224
      C   23   -0.62980      1.99926     4.61764    0.01290     6.62980
      H   24    0.21862      0.00000     0.78008    0.00129     0.78138
      H   25    0.21685      0.00000     0.77962    0.00353     0.78315
      H   26    0.22006      0.00000     0.77845    0.00149     0.77994
      P   27    0.78639      9.99834     4.17710    0.03817    14.21361
      C   28   -0.53282      1.99902     4.51167    0.02212     6.53282
      C   29   -0.43175      1.99910     4.41629    0.01636     6.43175
      C   30   -0.43498      1.99912     4.41920    0.01667     6.43498
      H   31    0.25291      0.00000     0.74209    0.00501     0.74709
      C   32   -0.42724      1.99914     4.41294    0.01516     6.42724
      H   33    0.21249      0.00000     0.78443    0.00308     0.78751
      H   34    0.21879      0.00000     0.77831    0.00289     0.78121
      C   35   -0.43016      1.99913     4.41610    0.01493     6.43016
      H   36    0.23775      0.00000     0.76002    0.00224     0.76225
      H   37    0.21549      0.00000     0.78143    0.00308     0.78451
      C   38   -0.43306      1.99913     4.41984    0.01409     6.43306
      H   39    0.22233      0.00000     0.77521    0.00245     0.77767
      H   40    0.21192      0.00000     0.78523    0.00286     0.78808
      H   41    0.22529      0.00000     0.77243    0.00228     0.77471
      H   42    0.21213      0.00000     0.78507    0.00280     0.78787
      H   43    0.21071      0.00000     0.78628    0.00301     0.78929
      H   44    0.22379      0.00000     0.77391    0.00231     0.77621
      C   45   -0.52600      1.99903     4.50542    0.02154     6.52600
      C   46   -0.42914      1.99912     4.41411    0.01591     6.42914
      C   47   -0.44560      1.99907     4.43066    0.01587     6.44560
      H   48    0.24460      0.00000     0.75154    0.00386     0.75540
      C   49   -0.42761      1.99914     4.41345    0.01502     6.42761
      H   50    0.21129      0.00000     0.78564    0.00306     0.78871
      H   51    0.23002      0.00000     0.76694    0.00304     0.76998
      C   52   -0.42822      1.99914     4.41412    0.01496     6.42822
      H   53    0.23125      0.00000     0.76255    0.00620     0.76875
      H   54    0.21437      0.00000     0.78220    0.00343     0.78563
      C   55   -0.43153      1.99913     4.41829    0.01411     6.43153
      H   56    0.22499      0.00000     0.77274    0.00227     0.77501
      H   57    0.21160      0.00000     0.78538    0.00302     0.78840
      H   58    0.22152      0.00000     0.77606    0.00242     0.77848
      H   59    0.20595      0.00000     0.79107    0.00298     0.79405
      H   60    0.21056      0.00000     0.78651    0.00292     0.78944
      H   61    0.22337      0.00000     0.77432    0.00231     0.77663
      C   62   -0.33585      1.99892     4.31563    0.02129     6.33585
      C   63   -0.34163      1.99896     4.32134    0.02133     6.34163
      C   64   -0.63257      1.99919     4.61758    0.01580     6.63257
      H   65    0.21526      0.00000     0.78254    0.00220     0.78474
      H   66    0.22293      0.00000     0.77318    0.00389     0.77707
      H   67    0.22207      0.00000     0.77443    0.00350     0.77793
      C   68   -0.62777      1.99919     4.61350    0.01508     6.62777
      H   69    0.21706      0.00000     0.78088    0.00205     0.78294
      H   70    0.21046      0.00000     0.78688    0.00267     0.78954
      H   71    0.21686      0.00000     0.78172    0.00142     0.78314
      C   72   -0.62882      1.99921     4.61386    0.01575     6.62882
      H   73    0.21415      0.00000     0.78425    0.00160     0.78585
      H   74    0.21778      0.00000     0.77996    0.00226     0.78222
      H   75    0.22493      0.00000     0.77310    0.00196     0.77507
      C   76   -0.62787      1.99923     4.61466    0.01398     6.62787
      H   77    0.21068      0.00000     0.78777    0.00154     0.78932
      H   78    0.21865      0.00000     0.77922    0.00213     0.78135
      H   79    0.22866      0.00000     0.76941    0.00193     0.77134
      C   80   -0.62272      1.99923     4.60827    0.01522     6.62272
      H   81    0.22619      0.00000     0.77178    0.00202     0.77381
      H   82    0.21663      0.00000     0.78150    0.00187     0.78337
      H   83    0.21407      0.00000     0.78456    0.00137     0.78593
      C   84   -0.62670      1.99920     4.61320    0.01430     6.62670
      H   85    0.21248      0.00000     0.78490    0.00262     0.78752
      H   86    0.21778      0.00000     0.78078    0.00144     0.78222
      H   87    0.21319      0.00000     0.78547    0.00134     0.78681
 =======================================================================
   * Total *   -0.00000    101.95661   197.20878    0.83461   300.00000

 Normal termination of Gaussian 16 at Sat Aug 12 04:39:37 2023.
