 Gaussian 16, Revision C.01,
 Gaussian 16:  ES64L-G16RevC.01  3-Jul-2019

 ----------------------------------------------------------------------
 #p pop=nbo NMR pbe1pbe/def2svpp empiricaldispersion=gd3bj integral=gri
 d=ultrafinegrid scf=(xqc,maxconventionalcycles=90) nosymm
 ----------------------------------------------------------------------

 ----
 Cisa
 ----
 Symbolic Z-matrix:
 Charge =  0 Multiplicity = 1

                          Input orientation:
 ---------------------------------------------------------------------
 Center     Atomic      Atomic             Coordinates (Angstroms)
 Number     Number       Type             X           Y           Z
 ---------------------------------------------------------------------
      1          6           0       -4.080250   -0.129360   -1.754380
      2          6           0       -5.009730   -0.380560   -0.706150
      3          6           0       -5.356870    0.872330   -0.127280
      4          6           0       -4.637600    1.891890   -0.814540
      5          6           0       -3.844500    1.269590   -1.820630
      6          1           0       -3.634540   -0.874950   -2.405970
      7          1           0       -5.388500   -1.355150   -0.399320
      8          1           0       -6.034210    1.024830    0.713250
      9          1           0       -4.677060    2.958570   -0.591320
     10          1           0       -3.180320    1.770890   -2.525300
     11         26           0       -3.345670    0.568690    0.055450
     12          6           0       -2.412810    1.812100    1.363010
     13          6           0       -1.449870    1.171440    0.523040
     14          6           0       -1.537400   -0.253970    0.769930
     15          6           0       -2.641940   -0.453260    1.665530
     16          6           0       -3.146540    0.812650    2.062020
     17          1           0       -2.613220    2.881420    1.407750
     18          1           0       -3.006400   -1.421940    2.001300
     19          1           0       -3.983270    0.989810    2.737770
     20          6           0       -0.604120    1.864200   -0.516230
     21          1           0       -0.703570    1.277840   -1.446940
     22         15           0       -0.117510   -1.389060    0.653120
     23          6           0       -1.107410    3.277660   -0.797370
     24          1           0       -0.654320    3.684200   -1.706010
     25          1           0       -2.197090    3.255080   -0.951500
     26          1           0       -0.897080    3.983700    0.017220
     27         15           0        1.217720    1.698560   -0.146670
     28          6           0        1.384680    2.315090    1.618220
     29          6           0        2.800450    2.197880    2.189540
     30          6           0        3.680560    3.385950    1.816810
     31          6           0        3.049940    4.705800    2.262460
     32          6           0        1.607530    4.868150    1.781320
     33          6           0        0.769200    3.636580    2.092730
     34          1           0        2.701230    2.164440    3.291420
     35          1           0        4.675830    3.272790    2.280700
     36          1           0        3.664440    5.558010    1.924350
     37          1           0        1.153210    5.752480    2.260600
     38          1           0       -0.264140    3.753510    1.738430
     39          1           0        1.581560    5.069620    0.696350
     40          1           0        0.688460    3.538520    3.192860
     41          1           0        0.775850    1.515510    2.074640
     42          1           0        3.260760    1.240960    1.896660
     43          1           0        3.851830    3.397910    0.724390
     44          1           0        3.058470    4.739480    3.368440
     45          6           0        2.225080    2.520970   -1.508000
     46          6           0        1.851870    1.894650   -2.871470
     47          6           0        0.856740    2.693800   -3.708290
     48          6           0        1.295060    4.146410   -3.873240
     49          6           0        1.554190    4.828290   -2.532450
     50          6           0        2.516600    4.023560   -1.667270
     51          1           0        2.788380    1.824380   -3.457340
     52          1           0        0.768820    2.213650   -4.698270
     53          1           0        0.544420    4.710150   -4.453440
     54          1           0        1.990050    5.828120   -2.700890
     55          1           0        2.653890    4.505990   -0.690190
     56          1           0        0.607080    5.008290   -1.998070
     57          1           0        3.508850    4.068850   -2.156270
     58          1           0        3.196970    2.084400   -1.227190
     59          1           0        1.494170    0.855810   -2.738040
     60          1           0       -0.152650    2.644270   -3.265520
     61          1           0        2.226960    4.168280   -4.470300
     62          6           0       -0.419310   -2.968200   -0.299730
     63          6           0       -1.710610   -3.766020   -0.076560
     64          6           0       -2.889670   -3.260620   -0.894970
     65          6           0       -2.537530   -3.178920   -2.376030
     66          6           0       -1.323990   -2.279390   -2.586380
     67          6           0       -0.129400   -2.795410   -1.799010
     68          1           0       -1.492710   -4.809750   -0.374660
     69          1           0       -3.758270   -3.923480   -0.736900
     70          1           0       -3.402190   -2.826330   -2.965160
     71          1           0       -1.062410   -2.217060   -3.657060
     72          1           0        0.738350   -2.123720   -1.939660
     73          1           0       -1.556210   -1.250140   -2.251450
     74          1           0        0.160740   -3.785450   -2.201290
     75          1           0        0.401930   -3.571000    0.127990
     76          1           0       -1.972970   -3.810170    0.991890
     77          1           0       -3.174110   -2.259090   -0.532750
     78          1           0       -2.307490   -4.191650   -2.759130
     79          6           0        0.260240   -2.015860    2.393870
     80          6           0        1.104270   -1.006490    3.189370
     81          6           0        0.281680   -0.073530    4.068000
     82          6           0       -0.506830   -0.884280    5.087040
     83          6           0       -1.468110   -1.819110    4.366280
     84          6           0       -0.782170   -2.694080    3.312560
     85          1           0        1.781360   -1.580580    3.851670
     86          1           0        0.952310    0.645830    4.570230
     87          1           0       -1.066750   -0.222220    5.769560
     88          1           0       -1.974630   -2.484420    5.087060
     89          1           0       -1.539980   -3.238860    2.727870
     90          1           0       -2.257730   -1.203320    3.911180
     91          1           0       -0.221990   -3.477830    3.856600
     92          1           0        0.945560   -2.825380    2.082990
     93          1           0        1.758100   -0.441210    2.499370
     94          1           0       -0.423420    0.516730    3.451310
     95          1           0        0.197060   -1.463140    5.715180
 ---------------------------------------------------------------------

 SCF Done:  E(RPBE1PBE) =  -3348.46313189     A.U. after   18 cycles

      1  C    Isotropic =   119.1588   Anisotropy =    87.6862

      2  C    Isotropic =   124.9970   Anisotropy =    84.7273

      3  C    Isotropic =   127.2348   Anisotropy =    78.8696

      4  C    Isotropic =   125.3703   Anisotropy =    82.5363

      5  C    Isotropic =   119.3482   Anisotropy =    93.0516

      6  H    Isotropic =    28.3614   Anisotropy =     7.8055

      7  H    Isotropic =    28.4248   Anisotropy =     3.7932

      8  H    Isotropic =    28.4047   Anisotropy =     5.9461

      9  H    Isotropic =    28.2127   Anisotropy =     3.6462

     10  H    Isotropic =    28.7138   Anisotropy =     3.7561

     11  Fe   Isotropic = -5470.3484   Anisotropy =  9394.7529

     12  C    Isotropic =   123.3955   Anisotropy =    79.2930

     13  C    Isotropic =   102.0236   Anisotropy =    87.9845

     14  C    Isotropic =   113.4002   Anisotropy =    95.9993

     15  C    Isotropic =   112.2249   Anisotropy =    84.2882

     16  C    Isotropic =   126.0621   Anisotropy =    78.9295

     17  H    Isotropic =    27.9411   Anisotropy =     3.9128

     18  H    Isotropic =    27.7781   Anisotropy =     1.1092

     19  H    Isotropic =    28.1154   Anisotropy =     6.2582

     20  C    Isotropic =   162.0171   Anisotropy =    14.0623

     21  H    Isotropic =    28.4512   Anisotropy =     6.1737

     22  P    Isotropic =   418.0878   Anisotropy =   127.4865

     23  C    Isotropic =   166.3328   Anisotropy =    15.3602

     24  H    Isotropic =    29.5696   Anisotropy =    11.0004

     25  H    Isotropic =    29.4530   Anisotropy =     8.9360

     26  H    Isotropic =    29.9667   Anisotropy =     5.2307

     27  P    Isotropic =   394.9515   Anisotropy =    47.2486

     28  C    Isotropic =   160.6592   Anisotropy =    16.1153

     29  C    Isotropic =   160.2361   Anisotropy =    12.9647

     30  C    Isotropic =   168.2377   Anisotropy =     7.3240

     31  C    Isotropic =   165.6584   Anisotropy =     3.9468

     32  C    Isotropic =   168.8941   Anisotropy =     7.6819

     33  C    Isotropic =   162.1287   Anisotropy =    12.5418

     34  H    Isotropic =    30.6561   Anisotropy =     7.3612

     35  H    Isotropic =    30.5445   Anisotropy =    11.6790

     36  H    Isotropic =    30.2638   Anisotropy =    10.7120

     37  H    Isotropic =    30.5025   Anisotropy =    10.5654

     38  H    Isotropic =    29.7279   Anisotropy =     8.8277

     39  H    Isotropic =    30.1557   Anisotropy =     6.9126

     40  H    Isotropic =    30.6997   Anisotropy =     6.5742

     41  H    Isotropic =    30.2620   Anisotropy =    11.2152

     42  H    Isotropic =    30.1129   Anisotropy =     6.0964

     43  H    Isotropic =    30.5186   Anisotropy =     5.7924

     44  H    Isotropic =    30.6362   Anisotropy =    10.1731

     45  C    Isotropic =   161.6457   Anisotropy =    18.5284

     46  C    Isotropic =   164.2963   Anisotropy =    11.2691

     47  C    Isotropic =   169.4492   Anisotropy =     7.7478

     48  C    Isotropic =   166.3433   Anisotropy =     6.3769

     49  C    Isotropic =   170.9378   Anisotropy =     8.1165

     50  C    Isotropic =   161.5454   Anisotropy =    14.4981

     51  H    Isotropic =    30.0707   Anisotropy =    10.0235

     52  H    Isotropic =    30.4365   Anisotropy =     9.9700

     53  H    Isotropic =    30.1677   Anisotropy =     9.9702

     54  H    Isotropic =    30.5233   Anisotropy =    11.2310

     55  H    Isotropic =    29.4950   Anisotropy =    10.0170

     56  H    Isotropic =    29.8754   Anisotropy =     5.5873

     57  H    Isotropic =    30.1687   Anisotropy =     9.5919

     58  H    Isotropic =    29.6658   Anisotropy =     7.0034

     59  H    Isotropic =    29.7008   Anisotropy =     7.8970

     60  H    Isotropic =    30.1935   Anisotropy =     7.3362

     61  H    Isotropic =    30.5634   Anisotropy =    10.4785

     62  C    Isotropic =   153.8658   Anisotropy =    21.5307

     63  C    Isotropic =   161.3864   Anisotropy =    12.6657

     64  C    Isotropic =   169.4242   Anisotropy =     7.8821

     65  C    Isotropic =   162.8264   Anisotropy =    12.4964

     66  C    Isotropic =   168.8463   Anisotropy =     7.7465

     67  C    Isotropic =   157.8153   Anisotropy =    16.6669

     68  H    Isotropic =    30.0887   Anisotropy =    10.0572

     69  H    Isotropic =    30.4609   Anisotropy =    10.1931

     70  H    Isotropic =    30.0336   Anisotropy =     7.2313

     71  H    Isotropic =    30.3818   Anisotropy =     9.7842

     72  H    Isotropic =    29.4507   Anisotropy =     6.6433

     73  H    Isotropic =    29.2955   Anisotropy =     7.9181

     74  H    Isotropic =    30.0597   Anisotropy =     9.5470

     75  H    Isotropic =    30.4178   Anisotropy =     6.0424

     76  H    Isotropic =    29.3307   Anisotropy =     7.3098

     77  H    Isotropic =    28.2605   Anisotropy =     9.5004

     78  H    Isotropic =    30.4862   Anisotropy =    10.1541

     79  C    Isotropic =   151.9924   Anisotropy =    26.2440

     80  C    Isotropic =   159.3481   Anisotropy =    14.5961

     81  C    Isotropic =   168.2003   Anisotropy =    11.4238

     82  C    Isotropic =   165.2651   Anisotropy =    10.1602

     83  C    Isotropic =   169.1176   Anisotropy =     9.2729

     84  C    Isotropic =   164.8397   Anisotropy =    10.4764

     85  H    Isotropic =    30.5583   Anisotropy =     9.5353

     86  H    Isotropic =    31.0498   Anisotropy =     8.9815

     87  H    Isotropic =    30.6178   Anisotropy =     9.7624

     88  H    Isotropic =    30.7355   Anisotropy =    11.3146

     89  H    Isotropic =    29.6668   Anisotropy =     6.6019

     90  H    Isotropic =    30.0172   Anisotropy =     9.9486

     91  H    Isotropic =    30.2516   Anisotropy =    10.4581

     92  H    Isotropic =    30.4254   Anisotropy =     6.7511

     93  H    Isotropic =    29.9535   Anisotropy =     7.9522

     94  H    Isotropic =    31.9482   Anisotropy =    10.5124

     95  H    Isotropic =    30.9690   Anisotropy =    11.0473

 Alpha  occ. eigenvalues -- -256.35245 -77.17016 -77.16304 -30.12674 -25.97528
 Alpha  occ. eigenvalues --  -25.95687 -25.95570 -10.25310 -10.24360 -10.24286
 Alpha  occ. eigenvalues --  -10.24190 -10.24128 -10.24060 -10.24055 -10.24039
 Alpha  occ. eigenvalues --  -10.23987 -10.23892 -10.23833 -10.23353 -10.23343
 Alpha  occ. eigenvalues --  -10.23090 -10.22955 -10.22469 -10.22207 -10.22151
 Alpha  occ. eigenvalues --  -10.22118 -10.21953 -10.21938 -10.21932 -10.21905
 Alpha  occ. eigenvalues --  -10.21846 -10.21842 -10.21814 -10.21805 -10.21748
 Alpha  occ. eigenvalues --  -10.21729 -10.21659 -10.21627 -10.21585 -10.21547
 Alpha  occ. eigenvalues --  -10.21500 -10.21394 -10.21304  -6.58005  -6.57346
 Alpha  occ. eigenvalues --   -4.72099  -4.72006  -4.71494  -4.71418  -4.71386
 Alpha  occ. eigenvalues --   -4.70792  -3.45807  -2.24742  -2.20145  -2.19927
 Alpha  occ. eigenvalues --   -0.92009  -0.90245  -0.85059  -0.84879  -0.84402
 Alpha  occ. eigenvalues --   -0.84252  -0.80426  -0.77067  -0.76249  -0.75549
 Alpha  occ. eigenvalues --   -0.75492  -0.75196  -0.75176  -0.75019  -0.74807
 Alpha  occ. eigenvalues --   -0.73284  -0.73063  -0.72960  -0.71469  -0.66080
 Alpha  occ. eigenvalues --   -0.64974  -0.62461  -0.61982  -0.61737  -0.61713
 Alpha  occ. eigenvalues --   -0.61525  -0.61264  -0.60862  -0.59313  -0.58209
 Alpha  occ. eigenvalues --   -0.56606  -0.56012  -0.55596  -0.55229  -0.55047
 Alpha  occ. eigenvalues --   -0.54405  -0.54156  -0.52225  -0.50832  -0.50414
 Alpha  occ. eigenvalues --   -0.49624  -0.48871  -0.48470  -0.48011  -0.46650
 Alpha  occ. eigenvalues --   -0.46281  -0.45756  -0.45538  -0.45094  -0.44798
 Alpha  occ. eigenvalues --   -0.44602  -0.44434  -0.44215  -0.43621  -0.43362
 Alpha  occ. eigenvalues --   -0.43054  -0.42489  -0.42149  -0.41817  -0.41553
 Alpha  occ. eigenvalues --   -0.41333  -0.40525  -0.40429  -0.40091  -0.39777
 Alpha  occ. eigenvalues --   -0.39576  -0.39562  -0.39410  -0.39261  -0.39220
 Alpha  occ. eigenvalues --   -0.38976  -0.38724  -0.38663  -0.38605  -0.38305
 Alpha  occ. eigenvalues --   -0.37990  -0.37623  -0.37557  -0.37104  -0.36565
 Alpha  occ. eigenvalues --   -0.34927  -0.34769  -0.34609  -0.34440  -0.34041
 Alpha  occ. eigenvalues --   -0.33453  -0.33260  -0.32847  -0.32238  -0.31786
 Alpha  occ. eigenvalues --   -0.31248  -0.31180  -0.30986  -0.30789  -0.30756
 Alpha  occ. eigenvalues --   -0.30480  -0.30351  -0.30003  -0.29364  -0.28453
 Alpha  occ. eigenvalues --   -0.28147  -0.27810  -0.25889  -0.25549  -0.24176
 Alpha  occ. eigenvalues --   -0.22354  -0.21634  -0.21204  -0.16479
 Alpha virt. eigenvalues --   -0.01161   0.00071   0.02709   0.03954   0.05274
 Alpha virt. eigenvalues --    0.05605   0.05837   0.06253   0.06483   0.06668
 Alpha virt. eigenvalues --    0.06808   0.07203   0.07551   0.07690   0.08089

 Mulliken charges:
               1
     1  C   -0.120742
     2  C   -0.097411
     3  C   -0.065842
     4  C   -0.080356
     5  C   -0.102140
     6  H    0.125208
     7  H    0.118896
     8  H    0.119015
     9  H    0.119730
    10  H    0.115949
    11  Fe  -0.223127
    12  C   -0.071435
    13  C   -0.104177
    14  C   -0.127194
    15  C   -0.144368
    16  C   -0.027771
    17  H    0.108117
    18  H    0.124580
    19  H    0.111227
    20  C   -0.302925
    21  H    0.168884
    22  P    0.297628
    23  C   -0.341831
    24  H    0.156502
    25  H    0.139453
    26  H    0.133155
    27  P    0.271552
    28  C   -0.447523
    29  C   -0.194509
    30  C   -0.208604
    31  C   -0.218952
    32  C   -0.222675
    33  C   -0.172845
    34  H    0.109073
    35  H    0.111585
    36  H    0.112716
    37  H    0.108353
    38  H    0.129979
    39  H    0.130109
    40  H    0.093189
    41  H    0.217429
    42  H    0.135560
    43  H    0.130702
    44  H    0.102767
    45  C   -0.350098
    46  C   -0.202662
    47  C   -0.237742
    48  C   -0.208764
    49  C   -0.223154
    50  C   -0.186422
    51  H    0.105075
    52  H    0.113771
    53  H    0.112595
    54  H    0.109239
    55  H    0.141855
    56  H    0.126237
    57  H    0.093382
    58  H    0.147688
    59  H    0.144932
    60  H    0.130906
    61  H    0.102912
    62  C   -0.361857
    63  C   -0.156375
    64  C   -0.264850
    65  C   -0.237995
    66  C   -0.253375
    67  C   -0.159621
    68  H    0.094302
    69  H    0.109266
    70  H    0.127148
    71  H    0.112226
    72  H    0.133734
    73  H    0.155529
    74  H    0.100745
    75  H    0.132249
    76  H    0.124954
    77  H    0.172617
    78  H    0.100442
    79  C   -0.348489
    80  C   -0.204198
    81  C   -0.293177
    82  C   -0.176281
    83  C   -0.230773
    84  C   -0.182733
    85  H    0.099995
    86  H    0.122376
    87  H    0.107826
    88  H    0.107688
    89  H    0.130957
    90  H    0.127062
    91  H    0.100469
    92  H    0.134410
    93  H    0.167383
    94  H    0.173756
    95  H    0.097910
 Sum of Mulliken charges =  -0.00000

 Dipole moment (field-independent basis, Debye):
    X=             -0.9423    Y=              0.6474    Z=              0.5636  Tot=              1.2746
 Quadrupole moment (field-independent basis, Debye-Ang):
   XX=           -264.3785   YY=           -259.0964   ZZ=           -263.4550
   XY=             -0.4826   XZ=             -6.2649   YZ=             -0.8395

 Summary of Natural Population Analysis:

                                       Natural Population
                Natural  -----------------------------------------------
    Atom  No    Charge         Core      Valence    Rydberg      Total
 -----------------------------------------------------------------------
      C    1   -0.24247      1.99874     4.22016    0.02357     6.24247
      C    2   -0.25462      1.99869     4.23323    0.02270     6.25462
      C    3   -0.23132      1.99865     4.21012    0.02255     6.23132
      C    4   -0.23792      1.99866     4.21737    0.02189     6.23792
      C    5   -0.25604      1.99869     4.23384    0.02350     6.25604
      H    6    0.24066      0.00000     0.75607    0.00326     0.75934
      H    7    0.24904      0.00000     0.74962    0.00134     0.75096
      H    8    0.24645      0.00000     0.75238    0.00117     0.75355
      H    9    0.24625      0.00000     0.75250    0.00125     0.75375
      H   10    0.24572      0.00000     0.75282    0.00145     0.75428
     Fe   11    0.05108     17.99252     7.93959    0.01680    25.94892
      C   12   -0.22964      1.99861     4.20970    0.02133     6.22964
      C   13   -0.05106      1.99860     4.02279    0.02968     6.05106
      C   14   -0.40707      1.99860     4.37618    0.03229     6.40707
      C   15   -0.24172      1.99866     4.21639    0.02668     6.24172
      C   16   -0.22644      1.99862     4.20511    0.02271     6.22644
      H   17    0.25209      0.00000     0.74660    0.00131     0.74791
      H   18    0.25227      0.00000     0.74608    0.00165     0.74773
      H   19    0.24777      0.00000     0.75099    0.00124     0.75223
      C   20   -0.53325      1.99900     4.51152    0.02272     6.53325
      H   21    0.26744      0.00000     0.72919    0.00337     0.73256
      P   22    0.79591      9.99814     4.16085    0.04510    14.20409
      C   23   -0.61835      1.99923     4.60676    0.01236     6.61835
      H   24    0.21552      0.00000     0.78198    0.00250     0.78448
      H   25    0.21053      0.00000     0.78596    0.00351     0.78947
      H   26    0.21271      0.00000     0.78558    0.00171     0.78729
      P   27    0.75811      9.99840     4.20038    0.04311    14.24189
      C   28   -0.53384      1.99898     4.51462    0.02023     6.53384
      C   29   -0.43391      1.99912     4.41794    0.01684     6.43391
      C   30   -0.42942      1.99913     4.41597    0.01433     6.42942
      C   31   -0.43449      1.99915     4.42149    0.01385     6.43449
      C   32   -0.42862      1.99912     4.41559    0.01391     6.42862
      C   33   -0.42939      1.99909     4.41262    0.01767     6.42939
      H   34    0.21623      0.00000     0.78046    0.00331     0.78377
      H   35    0.22568      0.00000     0.77203    0.00229     0.77432
      H   36    0.22369      0.00000     0.77410    0.00221     0.77631
      H   37    0.22458      0.00000     0.77310    0.00232     0.77542
      H   38    0.21816      0.00000     0.77902    0.00283     0.78184
      H   39    0.20773      0.00000     0.78902    0.00325     0.79227
      H   40    0.21433      0.00000     0.78203    0.00365     0.78567
      H   41    0.26612      0.00000     0.72709    0.00679     0.73388
      H   42    0.23411      0.00000     0.76347    0.00242     0.76589
      H   43    0.20906      0.00000     0.78711    0.00383     0.79094
      H   44    0.21205      0.00000     0.78488    0.00307     0.78795
      C   45   -0.53652      1.99901     4.51822    0.01929     6.53652
      C   46   -0.43763      1.99914     4.42145    0.01704     6.43763
      C   47   -0.43072      1.99912     4.41755    0.01404     6.43072
      C   48   -0.43457      1.99914     4.42118    0.01425     6.43457
      C   49   -0.42940      1.99913     4.41650    0.01377     6.42940
      C   50   -0.43414      1.99911     4.41832    0.01671     6.43414
      H   51    0.22085      0.00000     0.77584    0.00331     0.77915
      H   52    0.22781      0.00000     0.76985    0.00235     0.77219
      H   53    0.22380      0.00000     0.77397    0.00223     0.77620
      H   54    0.22616      0.00000     0.77148    0.00236     0.77384
      H   55    0.22139      0.00000     0.77511    0.00349     0.77861
      H   56    0.21007      0.00000     0.78719    0.00275     0.78993
      H   57    0.21453      0.00000     0.78167    0.00380     0.78547
      H   58    0.26205      0.00000     0.73510    0.00285     0.73795
      H   59    0.23622      0.00000     0.76096    0.00282     0.76378
      H   60    0.20631      0.00000     0.79058    0.00311     0.79369
      H   61    0.21167      0.00000     0.78519    0.00314     0.78833
      C   62   -0.52615      1.99902     4.50586    0.02127     6.52615
      C   63   -0.42664      1.99910     4.41022    0.01731     6.42664
      C   64   -0.43649      1.99909     4.42268    0.01473     6.43649
      C   65   -0.43874      1.99914     4.42509    0.01451     6.43874
      C   66   -0.43587      1.99911     4.42265    0.01410     6.43587
      C   67   -0.43181      1.99912     4.41493    0.01776     6.43181
      H   68    0.21167      0.00000     0.78451    0.00381     0.78833
      H   69    0.22141      0.00000     0.77634    0.00225     0.77859
      H   70    0.21842      0.00000     0.77951    0.00207     0.78158
      H   71    0.22421      0.00000     0.77351    0.00228     0.77579
      H   72    0.23873      0.00000     0.75862    0.00265     0.76127
      H   73    0.21352      0.00000     0.78204    0.00444     0.78648
      H   74    0.21484      0.00000     0.78190    0.00326     0.78516
      H   75    0.25579      0.00000     0.74095    0.00326     0.74421
      H   76    0.21730      0.00000     0.78029    0.00241     0.78270
      H   77    0.21650      0.00000     0.77571    0.00778     0.78350
      H   78    0.21501      0.00000     0.78180    0.00319     0.78499
      C   79   -0.51899      1.99903     4.49729    0.02267     6.51899
      C   80   -0.43657      1.99911     4.41997    0.01750     6.43657
      C   81   -0.44023      1.99912     4.42655    0.01457     6.44023
      C   82   -0.42643      1.99913     4.41260    0.01471     6.42643
      C   83   -0.42595      1.99912     4.41306    0.01377     6.42595
      C   84   -0.43857      1.99912     4.42244    0.01701     6.43857
      H   85    0.21672      0.00000     0.78005    0.00324     0.78328
      H   86    0.22440      0.00000     0.77315    0.00245     0.77560
      H   87    0.22219      0.00000     0.77554    0.00227     0.77781
      H   88    0.22275      0.00000     0.77492    0.00234     0.77725
      H   89    0.21905      0.00000     0.77874    0.00222     0.78095
      H   90    0.21324      0.00000     0.78298    0.00378     0.78676
      H   91    0.21918      0.00000     0.77733    0.00348     0.78082
      H   92    0.25520      0.00000     0.74165    0.00315     0.74480
      H   93    0.23668      0.00000     0.75945    0.00387     0.76332
      H   94    0.21619      0.00000     0.77910    0.00472     0.78381
      H   95    0.20787      0.00000     0.78899    0.00314     0.79213
 =======================================================================
   * Total *   -0.00000    109.95229   217.10490    0.94281   328.00000

 Normal termination of Gaussian 16 at Sat Aug 12 03:57:56 2023.
